ITEM: TIMESTEP
0
ITEM: NUMBER OF ATOMS
648
ITEM: BOX BOUNDS xy xz yz pp pp pp
-2.5841700000000001e-01 2.5181583000000000e+01 0.0000000000000000e+00
-2.5841700000000001e-01 2.5181583000000000e+01 0.0000000000000000e+00
-2.5841700000000001e-01 2.5181583000000000e+01 0.0000000000000000e+00
ITEM: ATOMS id type c_coord
1 2 4
2 2 4
3 2 4
4 2 4
5 2 4
6 2 4
7 2 4
8 2 4
9 2 0
10 1 0
11 2 0
12 2 0
13 2 0
14 1 0
15 1 0
16 1 0
17 1 0
18 1 0
19 2 0
20 1 0
21 1 0
22 2 0
23 2 0
24 1 0
57 2 4
58 2 4
59 2 4
60 2 4
61 2 4
62 2 4
63 2 4
64 2 4
65 1 0
66 2 0
67 2 0
68 1 0
69 1 0
70 1 0
71 2 0
72 1 0
73 2 0
74 2 0
75 1 0
76 2 0
77 2 0
78 1 0
79 1 0
80 1 0
113 2 4
114 2 4
115 2 4
116 2 4
117 2 4
118 2 4
119 2 4
120 2 4
121 2 0
122 1 0
123 2 0
124 2 0
125 1 0
126 1 0
127 2 0
128 1 0
129 2 0
130 2 0
131 1 0
132 2 0
133 1 0
134 2 0
135 2 0
136 1 0
169 2 4
170 2 4
171 2 4
172 2 4
173 2 4
174 2 4
175 2 4
176 2 4
177 2 0
178 2 0
179 1 0
180 1 0
181 2 0
182 2 0
183 1 0
184 2 0
185 1 0
186 1 0
187 1 0
188 1 0
189 2 0
190 2 0
191 2 0
192 1 0
225 2 4
226 2 4
227 2 4
228 2 4
229 2 4
230 2 4
231 2 4
232 2 4
233 2 0
234 2 0
235 1 0
236 2 0
237 2 0
238 2 0
239 2 0
240 1 0
241 2 0
242 2 0
243 1 0
244 2 0
245 2 0
246 1 0
247 1 0
248 1 0
281 2 4
282 2 4
283 2 4
284 2 4
285 2 4
286 2 4
287 2 4
288 2 4
289 1 0
290 2 0
291 1 0
292 2 0
293 1 0
294 2 0
295 2 0
296 2 0
297 2 0
298 1 0
299 2 0
300 2 0
301 1 0
302 2 0
303 1 0
304 2 0
337 2 4
338 2 4
339 2 4
340 2 4
341 2 4
342 2 4
343 2 4
344 2 4
345 1 0
346 2 0
347 2 0
348 2 0
349 2 0
350 1 0
351 1 0
352 2 0
353 1 0
354 2 0
355 2 0
356 2 0
357 1 0
358 1 0
359 2 0
360 1 0
393 2 4
394 2 4
395 2 4
396 2 4
397 2 4
398 2 4
399 2 4
400 2 4
401 1 0
402 2 0
403 1 0
404 2 0
405 2 0
406 1 0
407 1 0
408 2 0
409 2 0
410 1 0
411 1 0
412 1 0
413 2 0
414 1 0
415 1 0
416 1 0
449 2 4
450 2 4
451 2 4
452 2 4
453 2 4
454 2 4
455 2 4
456 2 4
457 2 0
458 1 0
459 1 0
460 1 0
461 1 0
462 1 0
463 2 0
464 1 0
465 2 0
466 1 0
467 2 0
468 2 0
469 1 0
470 1 0
471 1 0
472 1 0
505 2 4
506 2 4
507 2 4
508 2 4
509 2 4
510 2 4
511 2 4
512 2 4
513 2 0
514 1 0
515 1 0
516 2 0
517 2 0
518 2 0
519 2 0
520 2 0
521 1 0
522 1 0
523 1 0
524 1 0
525 2 0
526 2 0
527 1 0
528 1 0
561 2 4
562 2 4
563 2 4
564 2 4
565 2 4
566 2 4
567 2 4
568 2 4
569 2 0
570 2 0
571 1 0
572 1 0
573 1 0
574 1 0
575 1 0
576 1 0
577 1 0
578 2 0
579 1 0
580 2 0
581 1 0
582 2 0
583 2 0
584 2 0
617 2 4
618 2 4
619 2 4
620 2 4
621 2 4
622 2 4
623 2 4
624 2 4
625 2 0
626 2 0
627 2 0
628 1 0
629 1 0
630 2 0
631 2 0
632 2 0
633 1 0
634 2 0
635 2 0
636 2 0
637 2 0
638 2 0
639 2 0
640 2 0
673 2 4
674 2 4
675 2 4
676 2 4
677 2 4
678 2 4
679 2 4
680 2 4
681 2 0
682 1 0
683 2 0
684 1 0
685 1 0
686 1 0
687 1 0
688 2 0
689 2 0
690 1 0
691 1 0
692 1 0
693 1 0
694 2 0
695 1 0
696 1 0
729 2 4
730 2 4
731 2 4
732 2 4
733 2 4
734 2 4
735 2 4
736 2 4
737 1 0
738 2 0
739 2 0
740 1 0
741 1 0
742 2 0
743 1 0
744 1 0
745 2 0
746 1 0
747 1 0
748 1 0
749 2 0
750 2 0
751 1 0
752 2 0
785 2 4
786 2 4
787 2 4
788 2 4
789 2 4
790 2 4
791 2 4
792 2 4
793 2 0
794 2 0
795 2 0
796 1 0
797 1 0
798 2 0
799 1 0
800 2 0
801 2 0
802 1 0
803 1 0
804 2 0
805 1 0
806 2 0
807 1 0
808 1 0
841 2 4
842 2 4
843 2 4
844 2 4
845 2 4
846 2 4
847 2 4
848 2 4
849 2 0
850 1 0
851 2 0
852 1 0
853 2 0
854 2 0
855 1 0
856 2 0
857 2 0
858 2 0
859 2 0
860 1 0
861 2 0
862 1 0
863 2 0
864 2 0
897 2 4
898 2 4
899 2 4
900 2 4
901 2 4
902 2 4
903 2 4
904 2 4
905 2 0
906 1 0
907 2 0
908 2 0
909 2 0
910 1 0
911 2 0
912 2 0
913 1 0
914 2 0
915 1 0
916 2 0
917 2 0
918 2 0
919 2 0
920 1 0
953 2 4
954 2 4
955 2 4
956 2 4
957 2 4
958 2 4
959 2 4
960 2 4
961 2 0
962 2 0
963 2 0
964 2 0
965 1 0
966 2 0
967 1 0
968 1 0
969 1 0
970 2 0
971 2 0
972 2 0
973 1 0
974 2 0
975 2 0
976 2 0
1009 2 4
1010 2 4
1011 2 4
1012 2 4
1013 2 4
1014 2 4
1015 2 4
1016 2 4
1017 1 0
1018 1 0
1019 2 0
1020 1 0
1021 2 0
1022 1 0
1023 1 0
1024 1 0
1025 2 0
1026 1 0
1027 2 0
1028 2 0
1029 2 0
1030 2 0
1031 1 0
1032 1 0
1065 2 4
1066 2 4
1067 2 4
1068 2 4
1069 2 4
1070 2 4
1071 2 4
1072 2 4
1073 2 0
1074 2 0
1075 2 0
1076 1 0
1077 2 0
1078 2 0
1079 1 0
1080 1 0
1081 1 0
1082 2 0
1083 1 0
1084 1 0
1085 2 0
1086 1 0
1087 1 0
1088 1 0
1121 2 4
1122 2 4
1123 2 4
1124 2 4
1125 2 4
1126 2 4
1127 2 4
1128 2 4
1129 2 0
1130 2 0
1131 1 0
1132 1 0
1133 1 0
1134 2 0
1135 1 0
1136 1 0
1137 1 0
1138 1 0
1139 2 0
1140 1 0
1141 1 0
1142 2 0
1143 1 0
1144 1 0
1177 2 4
1178 2 4
1179 2 4
1180 2 4
1181 2 4
1182 2 4
1183 2 4
1184 2 4
1185 2 0
1186 2 0
1187 2 0
1188 1 0
1189 2 0
1190 1 0
1191 2 0
1192 1 0
1193 1 0
1194 1 0
1195 2 0
1196 2 0
1197 2 0
1198 1 0
1199 2 0
1200 2 0
1233 2 4
1234 2 4
1235 2 4
1236 2 4
1237 2 4
1238 2 4
1239 2 4
1240 2 4
1241 1 0
1242 1 0
1243 1 0
1244 2 0
1245 2 0
1246 2 0
1247 2 0
1248 1 0
1249 1 0
1250 1 0
1251 2 0
1252 2 0
1253 2 0
1254 1 0
1255 2 0
1256 1 0
1289 2 4
1290 2 4
1291 2 4
1292 2 4
1293 2 4
1294 2 4
1295 2 4
1296 2 4
1297 2 0
1298 2 0
1299 2 0
1300 1 0
1301 2 0
1302 1 0
1303 2 0
1304 1 0
1305 2 0
1306 2 0
1307 2 0
1308 1 0
1309 2 0
1310 2 0
1311 1 0
1312 1 0
1345 2 4
1346 2 4
1347 2 4
1348 2 4
1349 2 4
1350 2 4
1351 2 4
1352 2 4
1353 2 0
1354 1 0
1355 2 0
1356 1 0
1357 1 0
1358 1 0
1359 2 0
1360 1 0
1361 1 0
1362 1 0
1363 1 0
1364 1 0
1365 1 0
1366 2 0
1367 1 0
1368 1 0
1401 2 4
1402 2 4
1403 2 4
1404 2 4
1405 2 4
1406 2 4
1407 2 4
1408 2 4
1409 1 0
1410 2 0
1411 1 0
1412 1 0
1413 2 0
1414 1 0
1415 1 0
1416 2 0
1417 2 0
1418 1 0
1419 2 0
1420 1 0
1421 2 0
1422 1 0
1423 1 0
1424 2 0
1457 2 4
1458 2 4
1459 2 4
1460 2 4
1461 2 4
1462 2 4
1463 2 4
1464 2 4
1465 2 0
1466 2 0
1467 1 0
1468 1 0
1469 1 0
1470 2 0
1471 2 0
1472 2 0
1473 1 0
1474 1 0
1475 1 0
1476 1 0
1477 1 0
1478 1 0
1479 2 0
1480 1 0
