ITEM: TIMESTEP
0
ITEM: NUMBER OF ATOMS
1512
ITEM: BOX BOUNDS xy xz yz pp pp pp
-2.5841700000000001e-01 2.5181583000000000e+01 0.0000000000000000e+00
-2.5841700000000001e-01 2.5181583000000000e+01 0.0000000000000000e+00
-2.5841700000000001e-01 2.5181583000000000e+01 0.0000000000000000e+00
ITEM: ATOMS id mol type q x y z
1 0 2 1.575 1.06 1.06 1.06
2 0 2 1.575 7.42 7.42 7.42
3 0 2 1.575 5.3 1.06 5.3
4 0 2 1.575 3.18 7.42 3.18
5 0 2 1.575 1.06 5.3 5.3
6 0 2 1.575 7.42 3.18 3.18
7 0 2 1.575 5.3 5.3 1.06
8 0 2 1.575 3.18 3.18 7.42
9 0 2 1.575 4.24 0 0
10 0 1 1.05 2.12 2.12 4.24
11 0 2 1.575 6.36 6.36 4.24
12 0 2 1.575 6.36 4.24 6.36
13 0 2 1.575 2.12 4.24 2.12
14 0 1 1.05 0 6.36 2.12
15 0 1 1.05 0 2.12 6.36
16 0 1 1.05 0 4.24 0
17 0 1 1.05 4.24 2.12 2.12
18 0 1 1.05 4.24 6.36 6.36
19 0 2 1.575 2.12 0 6.36
20 0 1 1.05 6.36 0 2.12
21 0 1 1.05 0 0 4.24
22 0 2 1.575 6.36 2.12 0
23 0 2 1.575 2.12 6.36 0
24 0 1 1.05 4.24 4.24 4.24
25 0 3 -1.05 2.15684 8.44317 8.44317
26 0 3 -1.05 6.32316 0.036835 0.036835
27 0 3 -1.05 4.20317 2.15684 4.20317
28 0 3 -1.05 4.27684 6.32316 4.27684
29 0 3 -1.05 8.44317 4.20317 6.39683
30 0 3 -1.05 0.036835 4.27684 2.08317
31 0 3 -1.05 6.39683 6.39683 2.15684
32 0 3 -1.05 2.08317 2.08317 6.32316
33 0 3 -1.05 8.44317 2.15684 8.44317
34 0 3 -1.05 0.036835 6.32316 0.036835
35 0 3 -1.05 4.20317 4.20317 2.15684
36 0 3 -1.05 4.27684 4.27684 6.32316
37 0 3 -1.05 6.39683 8.44317 4.20317
38 0 3 -1.05 2.08317 0.036835 4.27684
39 0 3 -1.05 2.15684 6.39683 6.39683
40 0 3 -1.05 6.32316 2.08317 2.08317
41 0 3 -1.05 8.44317 8.44317 2.15684
42 0 3 -1.05 0.036835 0.036835 6.32316
43 0 3 -1.05 2.15684 4.20317 4.20317
44 0 3 -1.05 6.32316 4.27684 4.27684
45 0 3 -1.05 4.20317 6.39683 8.44317
46 0 3 -1.05 4.27684 2.08317 0.036835
47 0 3 -1.05 6.39683 2.15684 6.39683
48 0 3 -1.05 2.08317 6.32316 2.08317
49 0 3 -1.05 4.27684 0.036835 2.08317
50 0 3 -1.05 4.20317 8.44317 6.39683
51 0 3 -1.05 0.036835 2.08317 4.27684
52 0 3 -1.05 8.44317 6.39683 4.20317
53 0 3 -1.05 2.08317 4.27684 0.036835
54 0 3 -1.05 6.39683 4.20317 8.44317
55 0 3 -1.05 2.15684 2.15684 2.15684
56 0 3 -1.05 6.32316 6.32316 6.32316
57 0 2 1.575 9.54 1.06 1.06
58 0 2 1.575 15.9 7.42 7.42
59 0 2 1.575 13.78 1.06 5.3
60 0 2 1.575 11.66 7.42 3.18
61 0 2 1.575 9.54 5.3 5.3
62 0 2 1.575 15.9 3.18 3.18
63 0 2 1.575 13.78 5.3 1.06
64 0 2 1.575 11.66 3.18 7.42
65 0 1 1.05 12.72 0 0
66 0 2 1.575 10.6 2.12 4.24
67 0 2 1.575 14.84 6.36 4.24
68 0 1 1.05 14.84 4.24 6.36
69 0 1 1.05 10.6 4.24 2.12
70 0 1 1.05 8.48 6.36 2.12
71 0 2 1.575 8.48 2.12 6.36
72 0 1 1.05 8.48 4.24 0
73 0 2 1.575 12.72 2.12 2.12
74 0 2 1.575 12.72 6.36 6.36
75 0 1 1.05 10.6 0 6.36
76 0 2 1.575 14.84 0 2.12
77 0 2 1.575 8.48 0 4.24
78 0 1 1.05 14.84 2.12 0
79 0 1 1.05 10.6 6.36 0
80 0 1 1.05 12.72 4.24 4.24
81 0 3 -1.05 10.6368 8.44317 8.44317
82 0 3 -1.05 14.8032 0.036835 0.036835
83 0 3 -1.05 12.6832 2.15684 4.20317
84 0 3 -1.05 12.7568 6.32316 4.27684
85 0 3 -1.05 16.9232 4.20317 6.39683
86 0 3 -1.05 8.51684 4.27684 2.08317
87 0 3 -1.05 14.8768 6.39683 2.15684
88 0 3 -1.05 10.5632 2.08317 6.32316
89 0 3 -1.05 16.9232 2.15684 8.44317
90 0 3 -1.05 8.51684 6.32316 0.036835
91 0 3 -1.05 12.6832 4.20317 2.15684
92 0 3 -1.05 12.7568 4.27684 6.32316
93 0 3 -1.05 14.8768 8.44317 4.20317
94 0 3 -1.05 10.5632 0.036835 4.27684
95 0 3 -1.05 10.6368 6.39683 6.39683
96 0 3 -1.05 14.8032 2.08317 2.08317
97 0 3 -1.05 16.9232 8.44317 2.15684
98 0 3 -1.05 8.51684 0.036835 6.32316
99 0 3 -1.05 10.6368 4.20317 4.20317
100 0 3 -1.05 14.8032 4.27684 4.27684
101 0 3 -1.05 12.6832 6.39683 8.44317
102 0 3 -1.05 12.7568 2.08317 0.036835
103 0 3 -1.05 14.8768 2.15684 6.39683
104 0 3 -1.05 10.5632 6.32316 2.08317
105 0 3 -1.05 12.7568 0.036835 2.08317
106 0 3 -1.05 12.6832 8.44317 6.39683
107 0 3 -1.05 8.51684 2.08317 4.27684
108 0 3 -1.05 16.9232 6.39683 4.20317
109 0 3 -1.05 10.5632 4.27684 0.036835
110 0 3 -1.05 14.8768 4.20317 8.44317
111 0 3 -1.05 10.6368 2.15684 2.15684
112 0 3 -1.05 14.8032 6.32316 6.32316
113 0 2 1.575 18.02 1.06 1.06
114 0 2 1.575 24.38 7.42 7.42
115 0 2 1.575 22.26 1.06 5.3
116 0 2 1.575 20.14 7.42 3.18
117 0 2 1.575 18.02 5.3 5.3
118 0 2 1.575 24.38 3.18 3.18
119 0 2 1.575 22.26 5.3 1.06
120 0 2 1.575 20.14 3.18 7.42
121 0 2 1.575 21.2 0 0
122 0 1 1.05 19.08 2.12 4.24
123 0 2 1.575 23.32 6.36 4.24
124 0 2 1.575 23.32 4.24 6.36
125 0 1 1.05 19.08 4.24 2.12
126 0 1 1.05 16.96 6.36 2.12
127 0 2 1.575 16.96 2.12 6.36
128 0 1 1.05 16.96 4.24 0
129 0 2 1.575 21.2 2.12 2.12
130 0 2 1.575 21.2 6.36 6.36
131 0 1 1.05 19.08 0 6.36
132 0 2 1.575 23.32 0 2.12
133 0 1 1.05 16.96 0 4.24
134 0 2 1.575 23.32 2.12 0
135 0 2 1.575 19.08 6.36 0
136 0 1 1.05 21.2 4.24 4.24
137 0 3 -1.05 19.1168 8.44317 8.44317
138 0 3 -1.05 23.2832 0.036835 0.036835
139 0 3 -1.05 21.1632 2.15684 4.20317
140 0 3 -1.05 21.2368 6.32316 4.27684
141 0 3 -1.05 -0.036835 4.20317 6.39683
142 0 3 -1.05 16.9968 4.27684 2.08317
143 0 3 -1.05 23.3568 6.39683 2.15684
144 0 3 -1.05 19.0432 2.08317 6.32316
145 0 3 -1.05 -0.036835 2.15684 8.44317
146 0 3 -1.05 16.9968 6.32316 0.036835
147 0 3 -1.05 21.1632 4.20317 2.15684
148 0 3 -1.05 21.2368 4.27684 6.32316
149 0 3 -1.05 23.3568 8.44317 4.20317
150 0 3 -1.05 19.0432 0.036835 4.27684
151 0 3 -1.05 19.1168 6.39683 6.39683
152 0 3 -1.05 23.2832 2.08317 2.08317
153 0 3 -1.05 -0.036835 8.44317 2.15684
154 0 3 -1.05 16.9968 0.036835 6.32316
155 0 3 -1.05 19.1168 4.20317 4.20317
156 0 3 -1.05 23.2832 4.27684 4.27684
157 0 3 -1.05 21.1632 6.39683 8.44317
158 0 3 -1.05 21.2368 2.08317 0.036835
159 0 3 -1.05 23.3568 2.15684 6.39683
160 0 3 -1.05 19.0432 6.32316 2.08317
161 0 3 -1.05 21.2368 0.036835 2.08317
162 0 3 -1.05 21.1632 8.44317 6.39683
163 0 3 -1.05 16.9968 2.08317 4.27684
164 0 3 -1.05 -0.036835 6.39683 4.20317
165 0 3 -1.05 19.0432 4.27684 0.036835
166 0 3 -1.05 23.3568 4.20317 8.44317
167 0 3 -1.05 19.1168 2.15684 2.15684
168 0 3 -1.05 23.2832 6.32316 6.32316
169 0 2 1.575 1.06 9.54 1.06
170 0 2 1.575 7.42 15.9 7.42
171 0 2 1.575 5.3 9.54 5.3
172 0 2 1.575 3.18 15.9 3.18
173 0 2 1.575 1.06 13.78 5.3
174 0 2 1.575 7.42 11.66 3.18
175 0 2 1.575 5.3 13.78 1.06
176 0 2 1.575 3.18 11.66 7.42
177 0 2 1.575 4.24 8.48 0
178 0 2 1.575 2.12 10.6 4.24
179 0 1 1.05 6.36 14.84 4.24
180 0 1 1.05 6.36 12.72 6.36
181 0 2 1.575 2.12 12.72 2.12
182 0 2 1.575 0 14.84 2.12
183 0 1 1.05 0 10.6 6.36
184 0 2 1.575 0 12.72 0
185 0 1 1.05 4.24 10.6 2.12
186 0 1 1.05 4.24 14.84 6.36
187 0 1 1.05 2.12 8.48 6.36
188 0 1 1.05 6.36 8.48 2.12
189 0 2 1.575 0 8.48 4.24
190 0 2 1.575 6.36 10.6 0
191 0 2 1.575 2.12 14.84 0
192 0 1 1.05 4.24 12.72 4.24
193 0 3 -1.05 2.15684 16.9232 8.44317
194 0 3 -1.05 6.32316 8.51684 0.036835
195 0 3 -1.05 4.20317 10.6368 4.20317
196 0 3 -1.05 4.27684 14.8032 4.27684
197 0 3 -1.05 8.44317 12.6832 6.39683
198 0 3 -1.05 0.036835 12.7568 2.08317
199 0 3 -1.05 6.39683 14.8768 2.15684
200 0 3 -1.05 2.08317 10.5632 6.32316
201 0 3 -1.05 8.44317 10.6368 8.44317
202 0 3 -1.05 0.036835 14.8032 0.036835
203 0 3 -1.05 4.20317 12.6832 2.15684
204 0 3 -1.05 4.27684 12.7568 6.32316
205 0 3 -1.05 6.39683 16.9232 4.20317
206 0 3 -1.05 2.08317 8.51684 4.27684
207 0 3 -1.05 2.15684 14.8768 6.39683
208 0 3 -1.05 6.32316 10.5632 2.08317
209 0 3 -1.05 8.44317 16.9232 2.15684
210 0 3 -1.05 0.036835 8.51684 6.32316
211 0 3 -1.05 2.15684 12.6832 4.20317
212 0 3 -1.05 6.32316 12.7568 4.27684
213 0 3 -1.05 4.20317 14.8768 8.44317
214 0 3 -1.05 4.27684 10.5632 0.036835
215 0 3 -1.05 6.39683 10.6368 6.39683
216 0 3 -1.05 2.08317 14.8032 2.08317
217 0 3 -1.05 4.27684 8.51684 2.08317
218 0 3 -1.05 4.20317 16.9232 6.39683
219 0 3 -1.05 0.036835 10.5632 4.27684
220 0 3 -1.05 8.44317 14.8768 4.20317
221 0 3 -1.05 2.08317 12.7568 0.036835
222 0 3 -1.05 6.39683 12.6832 8.44317
223 0 3 -1.05 2.15684 10.6368 2.15684
224 0 3 -1.05 6.32316 14.8032 6.32316
225 0 2 1.575 9.54 9.54 1.06
226 0 2 1.575 15.9 15.9 7.42
227 0 2 1.575 13.78 9.54 5.3
228 0 2 1.575 11.66 15.9 3.18
229 0 2 1.575 9.54 13.78 5.3
230 0 2 1.575 15.9 11.66 3.18
231 0 2 1.575 13.78 13.78 1.06
232 0 2 1.575 11.66 11.66 7.42
233 0 2 1.575 12.72 8.48 0
234 0 2 1.575 10.6 10.6 4.24
235 0 1 1.05 14.84 14.84 4.24
236 0 2 1.575 14.84 12.72 6.36
237 0 2 1.575 10.6 12.72 2.12
238 0 2 1.575 8.48 14.84 2.12
239 0 2 1.575 8.48 10.6 6.36
240 0 1 1.05 8.48 12.72 0
241 0 2 1.575 12.72 10.6 2.12
242 0 2 1.575 12.72 14.84 6.36
243 0 1 1.05 10.6 8.48 6.36
244 0 2 1.575 14.84 8.48 2.12
245 0 2 1.575 8.48 8.48 4.24
246 0 1 1.05 14.84 10.6 0
247 0 1 1.05 10.6 14.84 0
248 0 1 1.05 12.72 12.72 4.24
249 0 3 -1.05 10.6368 16.9232 8.44317
250 0 3 -1.05 14.8032 8.51684 0.036835
251 0 3 -1.05 12.6832 10.6368 4.20317
252 0 3 -1.05 12.7568 14.8032 4.27684
253 0 3 -1.05 16.9232 12.6832 6.39683
254 0 3 -1.05 8.51684 12.7568 2.08317
255 0 3 -1.05 14.8768 14.8768 2.15684
256 0 3 -1.05 10.5632 10.5632 6.32316
257 0 3 -1.05 16.9232 10.6368 8.44317
258 0 3 -1.05 8.51684 14.8032 0.036835
259 0 3 -1.05 12.6832 12.6832 2.15684
260 0 3 -1.05 12.7568 12.7568 6.32316
261 0 3 -1.05 14.8768 16.9232 4.20317
262 0 3 -1.05 10.5632 8.51684 4.27684
263 0 3 -1.05 10.6368 14.8768 6.39683
264 0 3 -1.05 14.8032 10.5632 2.08317
265 0 3 -1.05 16.9232 16.9232 2.15684
266 0 3 -1.05 8.51684 8.51684 6.32316
267 0 3 -1.05 10.6368 12.6832 4.20317
268 0 3 -1.05 14.8032 12.7568 4.27684
269 0 3 -1.05 12.6832 14.8768 8.44317
270 0 3 -1.05 12.7568 10.5632 0.036835
271 0 3 -1.05 14.8768 10.6368 6.39683
272 0 3 -1.05 10.5632 14.8032 2.08317
273 0 3 -1.05 12.7568 8.51684 2.08317
274 0 3 -1.05 12.6832 16.9232 6.39683
275 0 3 -1.05 8.51684 10.5632 4.27684
276 0 3 -1.05 16.9232 14.8768 4.20317
277 0 3 -1.05 10.5632 12.7568 0.036835
278 0 3 -1.05 14.8768 12.6832 8.44317
279 0 3 -1.05 10.6368 10.6368 2.15684
280 0 3 -1.05 14.8032 14.8032 6.32316
281 0 2 1.575 18.02 9.54 1.06
282 0 2 1.575 24.38 15.9 7.42
283 0 2 1.575 22.26 9.54 5.3
284 0 2 1.575 20.14 15.9 3.18
285 0 2 1.575 18.02 13.78 5.3
286 0 2 1.575 24.38 11.66 3.18
287 0 2 1.575 22.26 13.78 1.06
288 0 2 1.575 20.14 11.66 7.42
289 0 1 1.05 21.2 8.48 0
290 0 2 1.575 19.08 10.6 4.24
291 0 1 1.05 23.32 14.84 4.24
292 0 2 1.575 23.32 12.72 6.36
293 0 1 1.05 19.08 12.72 2.12
294 0 2 1.575 16.96 14.84 2.12
295 0 2 1.575 16.96 10.6 6.36
296 0 2 1.575 16.96 12.72 0
297 0 2 1.575 21.2 10.6 2.12
298 0 1 1.05 21.2 14.84 6.36
299 0 2 1.575 19.08 8.48 6.36
300 0 2 1.575 23.32 8.48 2.12
301 0 1 1.05 16.96 8.48 4.24
302 0 2 1.575 23.32 10.6 0
303 0 1 1.05 19.08 14.84 0
304 0 2 1.575 21.2 12.72 4.24
305 0 3 -1.05 19.1168 16.9232 8.44317
306 0 3 -1.05 23.2832 8.51684 0.036835
307 0 3 -1.05 21.1632 10.6368 4.20317
308 0 3 -1.05 21.2368 14.8032 4.27684
309 0 3 -1.05 -0.036835 12.6832 6.39683
310 0 3 -1.05 16.9968 12.7568 2.08317
311 0 3 -1.05 23.3568 14.8768 2.15684
312 0 3 -1.05 19.0432 10.5632 6.32316
313 0 3 -1.05 -0.036835 10.6368 8.44317
314 0 3 -1.05 16.9968 14.8032 0.036835
315 0 3 -1.05 21.1632 12.6832 2.15684
316 0 3 -1.05 21.2368 12.7568 6.32316
317 0 3 -1.05 23.3568 16.9232 4.20317
318 0 3 -1.05 19.0432 8.51684 4.27684
319 0 3 -1.05 19.1168 14.8768 6.39683
320 0 3 -1.05 23.2832 10.5632 2.08317
321 0 3 -1.05 -0.036835 16.9232 2.15684
322 0 3 -1.05 16.9968 8.51684 6.32316
323 0 3 -1.05 19.1168 12.6832 4.20317
324 0 3 -1.05 23.2832 12.7568 4.27684
325 0 3 -1.05 21.1632 14.8768 8.44317
326 0 3 -1.05 21.2368 10.5632 0.036835
327 0 3 -1.05 23.3568 10.6368 6.39683
328 0 3 -1.05 19.0432 14.8032 2.08317
329 0 3 -1.05 21.2368 8.51684 2.08317
330 0 3 -1.05 21.1632 16.9232 6.39683
331 0 3 -1.05 16.9968 10.5632 4.27684
332 0 3 -1.05 -0.036835 14.8768 4.20317
333 0 3 -1.05 19.0432 12.7568 0.036835
334 0 3 -1.05 23.3568 12.6832 8.44317
335 0 3 -1.05 19.1168 10.6368 2.15684
336 0 3 -1.05 23.2832 14.8032 6.32316
337 0 2 1.575 1.06 18.02 1.06
338 0 2 1.575 7.42 24.38 7.42
339 0 2 1.575 5.3 18.02 5.3
340 0 2 1.575 3.18 24.38 3.18
341 0 2 1.575 1.06 22.26 5.3
342 0 2 1.575 7.42 20.14 3.18
343 0 2 1.575 5.3 22.26 1.06
344 0 2 1.575 3.18 20.14 7.42
345 0 1 1.05 4.24 16.96 0
346 0 2 1.575 2.12 19.08 4.24
347 0 2 1.575 6.36 23.32 4.24
348 0 2 1.575 6.36 21.2 6.36
349 0 2 1.575 2.12 21.2 2.12
350 0 1 1.05 0 23.32 2.12
351 0 1 1.05 0 19.08 6.36
352 0 2 1.575 0 21.2 0
353 0 1 1.05 4.24 19.08 2.12
354 0 2 1.575 4.24 23.32 6.36
355 0 2 1.575 2.12 16.96 6.36
356 0 2 1.575 6.36 16.96 2.12
357 0 1 1.05 0 16.96 4.24
358 0 1 1.05 6.36 19.08 0
359 0 2 1.575 2.12 23.32 0
360 0 1 1.05 4.24 21.2 4.24
361 0 3 -1.05 2.15684 -0.036835 8.44317
362 0 3 -1.05 6.32316 16.9968 0.036835
363 0 3 -1.05 4.20317 19.1168 4.20317
364 0 3 -1.05 4.27684 23.2832 4.27684
365 0 3 -1.05 8.44317 21.1632 6.39683
366 0 3 -1.05 0.036835 21.2368 2.08317
367 0 3 -1.05 6.39683 23.3568 2.15684
368 0 3 -1.05 2.08317 19.0432 6.32316
369 0 3 -1.05 8.44317 19.1168 8.44317
370 0 3 -1.05 0.036835 23.2832 0.036835
371 0 3 -1.05 4.20317 21.1632 2.15684
372 0 3 -1.05 4.27684 21.2368 6.32316
373 0 3 -1.05 6.39683 -0.036835 4.20317
374 0 3 -1.05 2.08317 16.9968 4.27684
375 0 3 -1.05 2.15684 23.3568 6.39683
376 0 3 -1.05 6.32316 19.0432 2.08317
377 0 3 -1.05 8.44317 -0.036835 2.15684
378 0 3 -1.05 0.036835 16.9968 6.32316
379 0 3 -1.05 2.15684 21.1632 4.20317
380 0 3 -1.05 6.32316 21.2368 4.27684
381 0 3 -1.05 4.20317 23.3568 8.44317
382 0 3 -1.05 4.27684 19.0432 0.036835
383 0 3 -1.05 6.39683 19.1168 6.39683
384 0 3 -1.05 2.08317 23.2832 2.08317
385 0 3 -1.05 4.27684 16.9968 2.08317
386 0 3 -1.05 4.20317 -0.036835 6.39683
387 0 3 -1.05 0.036835 19.0432 4.27684
388 0 3 -1.05 8.44317 23.3568 4.20317
389 0 3 -1.05 2.08317 21.2368 0.036835
390 0 3 -1.05 6.39683 21.1632 8.44317
391 0 3 -1.05 2.15684 19.1168 2.15684
392 0 3 -1.05 6.32316 23.2832 6.32316
393 0 2 1.575 9.54 18.02 1.06
394 0 2 1.575 15.9 24.38 7.42
395 0 2 1.575 13.78 18.02 5.3
396 0 2 1.575 11.66 24.38 3.18
397 0 2 1.575 9.54 22.26 5.3
398 0 2 1.575 15.9 20.14 3.18
399 0 2 1.575 13.78 22.26 1.06
400 0 2 1.575 11.66 20.14 7.42
401 0 1 1.05 12.72 16.96 0
402 0 2 1.575 10.6 19.08 4.24
403 0 1 1.05 14.84 23.32 4.24
404 0 2 1.575 14.84 21.2 6.36
405 0 2 1.575 10.6 21.2 2.12
406 0 1 1.05 8.48 23.32 2.12
407 0 1 1.05 8.48 19.08 6.36
408 0 2 1.575 8.48 21.2 0
409 0 2 1.575 12.72 19.08 2.12
410 0 1 1.05 12.72 23.32 6.36
411 0 1 1.05 10.6 16.96 6.36
412 0 1 1.05 14.84 16.96 2.12
413 0 2 1.575 8.48 16.96 4.24
414 0 1 1.05 14.84 19.08 0
415 0 1 1.05 10.6 23.32 0
416 0 1 1.05 12.72 21.2 4.24
417 0 3 -1.05 10.6368 -0.036835 8.44317
418 0 3 -1.05 14.8032 16.9968 0.036835
419 0 3 -1.05 12.6832 19.1168 4.20317
420 0 3 -1.05 12.7568 23.2832 4.27684
421 0 3 -1.05 16.9232 21.1632 6.39683
422 0 3 -1.05 8.51684 21.2368 2.08317
423 0 3 -1.05 14.8768 23.3568 2.15684
424 0 3 -1.05 10.5632 19.0432 6.32316
425 0 3 -1.05 16.9232 19.1168 8.44317
426 0 3 -1.05 8.51684 23.2832 0.036835
427 0 3 -1.05 12.6832 21.1632 2.15684
428 0 3 -1.05 12.7568 21.2368 6.32316
429 0 3 -1.05 14.8768 -0.036835 4.20317
430 0 3 -1.05 10.5632 16.9968 4.27684
431 0 3 -1.05 10.6368 23.3568 6.39683
432 0 3 -1.05 14.8032 19.0432 2.08317
433 0 3 -1.05 16.9232 -0.036835 2.15684
434 0 3 -1.05 8.51684 16.9968 6.32316
435 0 3 -1.05 10.6368 21.1632 4.20317
436 0 3 -1.05 14.8032 21.2368 4.27684
437 0 3 -1.05 12.6832 23.3568 8.44317
438 0 3 -1.05 12.7568 19.0432 0.036835
439 0 3 -1.05 14.8768 19.1168 6.39683
440 0 3 -1.05 10.5632 23.2832 2.08317
441 0 3 -1.05 12.7568 16.9968 2.08317
442 0 3 -1.05 12.6832 -0.036835 6.39683
443 0 3 -1.05 8.51684 19.0432 4.27684
444 0 3 -1.05 16.9232 23.3568 4.20317
445 0 3 -1.05 10.5632 21.2368 0.036835
446 0 3 -1.05 14.8768 21.1632 8.44317
447 0 3 -1.05 10.6368 19.1168 2.15684
448 0 3 -1.05 14.8032 23.2832 6.32316
449 0 2 1.575 18.02 18.02 1.06
450 0 2 1.575 24.38 24.38 7.42
451 0 2 1.575 22.26 18.02 5.3
452 0 2 1.575 20.14 24.38 3.18
453 0 2 1.575 18.02 22.26 5.3
454 0 2 1.575 24.38 20.14 3.18
455 0 2 1.575 22.26 22.26 1.06
456 0 2 1.575 20.14 20.14 7.42
457 0 2 1.575 21.2 16.96 0
458 0 1 1.05 19.08 19.08 4.24
459 0 1 1.05 23.32 23.32 4.24
460 0 1 1.05 23.32 21.2 6.36
461 0 1 1.05 19.08 21.2 2.12
462 0 1 1.05 16.96 23.32 2.12
463 0 2 1.575 16.96 19.08 6.36
464 0 1 1.05 16.96 21.2 0
465 0 2 1.575 21.2 19.08 2.12
466 0 1 1.05 21.2 23.32 6.36
467 0 2 1.575 19.08 16.96 6.36
468 0 2 1.575 23.32 16.96 2.12
469 0 1 1.05 16.96 16.96 4.24
470 0 1 1.05 23.32 19.08 0
471 0 1 1.05 19.08 23.32 0
472 0 1 1.05 21.2 21.2 4.24
473 0 3 -1.05 19.1168 -0.036835 8.44317
474 0 3 -1.05 23.2832 16.9968 0.036835
475 0 3 -1.05 21.1632 19.1168 4.20317
476 0 3 -1.05 21.2368 23.2832 4.27684
477 0 3 -1.05 -0.036835 21.1632 6.39683
478 0 3 -1.05 16.9968 21.2368 2.08317
479 0 3 -1.05 23.3568 23.3568 2.15684
480 0 3 -1.05 19.0432 19.0432 6.32316
481 0 3 -1.05 -0.036835 19.1168 8.44317
482 0 3 -1.05 16.9968 23.2832 0.036835
483 0 3 -1.05 21.1632 21.1632 2.15684
484 0 3 -1.05 21.2368 21.2368 6.32316
485 0 3 -1.05 23.3568 -0.036835 4.20317
486 0 3 -1.05 19.0432 16.9968 4.27684
487 0 3 -1.05 19.1168 23.3568 6.39683
488 0 3 -1.05 23.2832 19.0432 2.08317
489 0 3 -1.05 -0.036835 -0.036835 2.15684
490 0 3 -1.05 16.9968 16.9968 6.32316
491 0 3 -1.05 19.1168 21.1632 4.20317
492 0 3 -1.05 23.2832 21.2368 4.27684
493 0 3 -1.05 21.1632 23.3568 8.44317
494 0 3 -1.05 21.2368 19.0432 0.036835
495 0 3 -1.05 23.3568 19.1168 6.39683
496 0 3 -1.05 19.0432 23.2832 2.08317
497 0 3 -1.05 21.2368 16.9968 2.08317
498 0 3 -1.05 21.1632 -0.036835 6.39683
499 0 3 -1.05 16.9968 19.0432 4.27684
500 0 3 -1.05 -0.036835 23.3568 4.20317
501 0 3 -1.05 19.0432 21.2368 0.036835
502 0 3 -1.05 23.3568 21.1632 8.44317
503 0 3 -1.05 19.1168 19.1168 2.15684
504 0 3 -1.05 23.2832 23.2832 6.32316
505 0 2 1.575 1.06 1.06 9.54
506 0 2 1.575 7.42 7.42 15.9
507 0 2 1.575 5.3 1.06 13.78
508 0 2 1.575 3.18 7.42 11.66
509 0 2 1.575 1.06 5.3 13.78
510 0 2 1.575 7.42 3.18 11.66
511 0 2 1.575 5.3 5.3 9.54
512 0 2 1.575 3.18 3.18 15.9
513 0 2 1.575 4.24 0 8.48
514 0 1 1.05 2.12 2.12 12.72
515 0 1 1.05 6.36 6.36 12.72
516 0 2 1.575 6.36 4.24 14.84
517 0 2 1.575 2.12 4.24 10.6
518 0 2 1.575 0 6.36 10.6
519 0 2 1.575 0 2.12 14.84
520 0 2 1.575 0 4.24 8.48
521 0 1 1.05 4.24 2.12 10.6
522 0 1 1.05 4.24 6.36 14.84
523 0 1 1.05 2.12 0 14.84
524 0 1 1.05 6.36 0 10.6
525 0 2 1.575 0 0 12.72
526 0 2 1.575 6.36 2.12 8.48
527 0 1 1.05 2.12 6.36 8.48
528 0 1 1.05 4.24 4.24 12.72
529 0 3 -1.05 2.15684 8.44317 16.9232
530 0 3 -1.05 6.32316 0.036835 8.51684
531 0 3 -1.05 4.20317 2.15684 12.6832
532 0 3 -1.05 4.27684 6.32316 12.7568
533 0 3 -1.05 8.44317 4.20317 14.8768
534 0 3 -1.05 0.036835 4.27684 10.5632
535 0 3 -1.05 6.39683 6.39683 10.6368
536 0 3 -1.05 2.08317 2.08317 14.8032
537 0 3 -1.05 8.44317 2.15684 16.9232
538 0 3 -1.05 0.036835 6.32316 8.51684
539 0 3 -1.05 4.20317 4.20317 10.6368
540 0 3 -1.05 4.27684 4.27684 14.8032
541 0 3 -1.05 6.39683 8.44317 12.6832
542 0 3 -1.05 2.08317 0.036835 12.7568
543 0 3 -1.05 2.15684 6.39683 14.8768
544 0 3 -1.05 6.32316 2.08317 10.5632
545 0 3 -1.05 8.44317 8.44317 10.6368
546 0 3 -1.05 0.036835 0.036835 14.8032
547 0 3 -1.05 2.15684 4.20317 12.6832
548 0 3 -1.05 6.32316 4.27684 12.7568
549 0 3 -1.05 4.20317 6.39683 16.9232
550 0 3 -1.05 4.27684 2.08317 8.51684
551 0 3 -1.05 6.39683 2.15684 14.8768
552 0 3 -1.05 2.08317 6.32316 10.5632
553 0 3 -1.05 4.27684 0.036835 10.5632
554 0 3 -1.05 4.20317 8.44317 14.8768
555 0 3 -1.05 0.036835 2.08317 12.7568
556 0 3 -1.05 8.44317 6.39683 12.6832
557 0 3 -1.05 2.08317 4.27684 8.51684
558 0 3 -1.05 6.39683 4.20317 16.9232
559 0 3 -1.05 2.15684 2.15684 10.6368
560 0 3 -1.05 6.32316 6.32316 14.8032
561 0 2 1.575 9.54 1.06 9.54
562 0 2 1.575 15.9 7.42 15.9
563 0 2 1.575 13.78 1.06 13.78
564 0 2 1.575 11.66 7.42 11.66
565 0 2 1.575 9.54 5.3 13.78
566 0 2 1.575 15.9 3.18 11.66
567 0 2 1.575 13.78 5.3 9.54
568 0 2 1.575 11.66 3.18 15.9
569 0 2 1.575 12.72 0 8.48
570 0 2 1.575 10.6 2.12 12.72
571 0 1 1.05 14.84 6.36 12.72
572 0 1 1.05 14.84 4.24 14.84
573 0 1 1.05 10.6 4.24 10.6
574 0 1 1.05 8.48 6.36 10.6
575 0 1 1.05 8.48 2.12 14.84
576 0 1 1.05 8.48 4.24 8.48
577 0 1 1.05 12.72 2.12 10.6
578 0 2 1.575 12.72 6.36 14.84
579 0 1 1.05 10.6 0 14.84
580 0 2 1.575 14.84 0 10.6
581 0 1 1.05 8.48 0 12.72
582 0 2 1.575 14.84 2.12 8.48
583 0 2 1.575 10.6 6.36 8.48
584 0 2 1.575 12.72 4.24 12.72
585 0 3 -1.05 10.6368 8.44317 16.9232
586 0 3 -1.05 14.8032 0.036835 8.51684
587 0 3 -1.05 12.6832 2.15684 12.6832
588 0 3 -1.05 12.7568 6.32316 12.7568
589 0 3 -1.05 16.9232 4.20317 14.8768
590 0 3 -1.05 8.51684 4.27684 10.5632
591 0 3 -1.05 14.8768 6.39683 10.6368
592 0 3 -1.05 10.5632 2.08317 14.8032
593 0 3 -1.05 16.9232 2.15684 16.9232
594 0 3 -1.05 8.51684 6.32316 8.51684
595 0 3 -1.05 12.6832 4.20317 10.6368
596 0 3 -1.05 12.7568 4.27684 14.8032
597 0 3 -1.05 14.8768 8.44317 12.6832
598 0 3 -1.05 10.5632 0.036835 12.7568
599 0 3 -1.05 10.6368 6.39683 14.8768
600 0 3 -1.05 14.8032 2.08317 10.5632
601 0 3 -1.05 16.9232 8.44317 10.6368
602 0 3 -1.05 8.51684 0.036835 14.8032
603 0 3 -1.05 10.6368 4.20317 12.6832
604 0 3 -1.05 14.8032 4.27684 12.7568
605 0 3 -1.05 12.6832 6.39683 16.9232
606 0 3 -1.05 12.7568 2.08317 8.51684
607 0 3 -1.05 14.8768 2.15684 14.8768
608 0 3 -1.05 10.5632 6.32316 10.5632
609 0 3 -1.05 12.7568 0.036835 10.5632
610 0 3 -1.05 12.6832 8.44317 14.8768
611 0 3 -1.05 8.51684 2.08317 12.7568
612 0 3 -1.05 16.9232 6.39683 12.6832
613 0 3 -1.05 10.5632 4.27684 8.51684
614 0 3 -1.05 14.8768 4.20317 16.9232
615 0 3 -1.05 10.6368 2.15684 10.6368
616 0 3 -1.05 14.8032 6.32316 14.8032
617 0 2 1.575 18.02 1.06 9.54
618 0 2 1.575 24.38 7.42 15.9
619 0 2 1.575 22.26 1.06 13.78
620 0 2 1.575 20.14 7.42 11.66
621 0 2 1.575 18.02 5.3 13.78
622 0 2 1.575 24.38 3.18 11.66
623 0 2 1.575 22.26 5.3 9.54
624 0 2 1.575 20.14 3.18 15.9
625 0 2 1.575 21.2 0 8.48
626 0 2 1.575 19.08 2.12 12.72
627 0 2 1.575 23.32 6.36 12.72
628 0 1 1.05 23.32 4.24 14.84
629 0 1 1.05 19.08 4.24 10.6
630 0 2 1.575 16.96 6.36 10.6
631 0 2 1.575 16.96 2.12 14.84
632 0 2 1.575 16.96 4.24 8.48
633 0 1 1.05 21.2 2.12 10.6
634 0 2 1.575 21.2 6.36 14.84
635 0 2 1.575 19.08 0 14.84
636 0 2 1.575 23.32 0 10.6
637 0 2 1.575 16.96 0 12.72
638 0 2 1.575 23.32 2.12 8.48
639 0 2 1.575 19.08 6.36 8.48
640 0 2 1.575 21.2 4.24 12.72
641 0 3 -1.05 19.1168 8.44317 16.9232
642 0 3 -1.05 23.2832 0.036835 8.51684
643 0 3 -1.05 21.1632 2.15684 12.6832
644 0 3 -1.05 21.2368 6.32316 12.7568
645 0 3 -1.05 -0.036835 4.20317 14.8768
646 0 3 -1.05 16.9968 4.27684 10.5632
647 0 3 -1.05 23.3568 6.39683 10.6368
648 0 3 -1.05 19.0432 2.08317 14.8032
649 0 3 -1.05 -0.036835 2.15684 16.9232
650 0 3 -1.05 16.9968 6.32316 8.51684
651 0 3 -1.05 21.1632 4.20317 10.6368
652 0 3 -1.05 21.2368 4.27684 14.8032
653 0 3 -1.05 23.3568 8.44317 12.6832
654 0 3 -1.05 19.0432 0.036835 12.7568
655 0 3 -1.05 19.1168 6.39683 14.8768
656 0 3 -1.05 23.2832 2.08317 10.5632
657 0 3 -1.05 -0.036835 8.44317 10.6368
658 0 3 -1.05 16.9968 0.036835 14.8032
659 0 3 -1.05 19.1168 4.20317 12.6832
660 0 3 -1.05 23.2832 4.27684 12.7568
661 0 3 -1.05 21.1632 6.39683 16.9232
662 0 3 -1.05 21.2368 2.08317 8.51684
663 0 3 -1.05 23.3568 2.15684 14.8768
664 0 3 -1.05 19.0432 6.32316 10.5632
665 0 3 -1.05 21.2368 0.036835 10.5632
666 0 3 -1.05 21.1632 8.44317 14.8768
667 0 3 -1.05 16.9968 2.08317 12.7568
668 0 3 -1.05 -0.036835 6.39683 12.6832
669 0 3 -1.05 19.0432 4.27684 8.51684
670 0 3 -1.05 23.3568 4.20317 16.9232
671 0 3 -1.05 19.1168 2.15684 10.6368
672 0 3 -1.05 23.2832 6.32316 14.8032
673 0 2 1.575 1.06 9.54 9.54
674 0 2 1.575 7.42 15.9 15.9
675 0 2 1.575 5.3 9.54 13.78
676 0 2 1.575 3.18 15.9 11.66
677 0 2 1.575 1.06 13.78 13.78
678 0 2 1.575 7.42 11.66 11.66
679 0 2 1.575 5.3 13.78 9.54
680 0 2 1.575 3.18 11.66 15.9
681 0 2 1.575 4.24 8.48 8.48
682 0 1 1.05 2.12 10.6 12.72
683 0 2 1.575 6.36 14.84 12.72
684 0 1 1.05 6.36 12.72 14.84
685 0 1 1.05 2.12 12.72 10.6
686 0 1 1.05 0 14.84 10.6
687 0 1 1.05 0 10.6 14.84
688 0 2 1.575 0 12.72 8.48
689 0 2 1.575 4.24 10.6 10.6
690 0 1 1.05 4.24 14.84 14.84
691 0 1 1.05 2.12 8.48 14.84
692 0 1 1.05 6.36 8.48 10.6
693 0 1 1.05 0 8.48 12.72
694 0 2 1.575 6.36 10.6 8.48
695 0 1 1.05 2.12 14.84 8.48
696 0 1 1.05 4.24 12.72 12.72
697 0 3 -1.05 2.15684 16.9232 16.9232
698 0 3 -1.05 6.32316 8.51684 8.51684
699 0 3 -1.05 4.20317 10.6368 12.6832
700 0 3 -1.05 4.27684 14.8032 12.7568
701 0 3 -1.05 8.44317 12.6832 14.8768
702 0 3 -1.05 0.036835 12.7568 10.5632
703 0 3 -1.05 6.39683 14.8768 10.6368
704 0 3 -1.05 2.08317 10.5632 14.8032
705 0 3 -1.05 8.44317 10.6368 16.9232
706 0 3 -1.05 0.036835 14.8032 8.51684
707 0 3 -1.05 4.20317 12.6832 10.6368
708 0 3 -1.05 4.27684 12.7568 14.8032
709 0 3 -1.05 6.39683 16.9232 12.6832
710 0 3 -1.05 2.08317 8.51684 12.7568
711 0 3 -1.05 2.15684 14.8768 14.8768
712 0 3 -1.05 6.32316 10.5632 10.5632
713 0 3 -1.05 8.44317 16.9232 10.6368
714 0 3 -1.05 0.036835 8.51684 14.8032
715 0 3 -1.05 2.15684 12.6832 12.6832
716 0 3 -1.05 6.32316 12.7568 12.7568
717 0 3 -1.05 4.20317 14.8768 16.9232
718 0 3 -1.05 4.27684 10.5632 8.51684
719 0 3 -1.05 6.39683 10.6368 14.8768
720 0 3 -1.05 2.08317 14.8032 10.5632
721 0 3 -1.05 4.27684 8.51684 10.5632
722 0 3 -1.05 4.20317 16.9232 14.8768
723 0 3 -1.05 0.036835 10.5632 12.7568
724 0 3 -1.05 8.44317 14.8768 12.6832
725 0 3 -1.05 2.08317 12.7568 8.51684
726 0 3 -1.05 6.39683 12.6832 16.9232
727 0 3 -1.05 2.15684 10.6368 10.6368
728 0 3 -1.05 6.32316 14.8032 14.8032
729 0 2 1.575 9.54 9.54 9.54
730 0 2 1.575 15.9 15.9 15.9
731 0 2 1.575 13.78 9.54 13.78
732 0 2 1.575 11.66 15.9 11.66
733 0 2 1.575 9.54 13.78 13.78
734 0 2 1.575 15.9 11.66 11.66
735 0 2 1.575 13.78 13.78 9.54
736 0 2 1.575 11.66 11.66 15.9
737 0 1 1.05 12.72 8.48 8.48
738 0 2 1.575 10.6 10.6 12.72
739 0 2 1.575 14.84 14.84 12.72
740 0 1 1.05 14.84 12.72 14.84
741 0 1 1.05 10.6 12.72 10.6
742 0 2 1.575 8.48 14.84 10.6
743 0 1 1.05 8.48 10.6 14.84
744 0 1 1.05 8.48 12.72 8.48
745 0 2 1.575 12.72 10.6 10.6
746 0 1 1.05 12.72 14.84 14.84
747 0 1 1.05 10.6 8.48 14.84
748 0 1 1.05 14.84 8.48 10.6
749 0 2 1.575 8.48 8.48 12.72
750 0 2 1.575 14.84 10.6 8.48
751 0 1 1.05 10.6 14.84 8.48
752 0 2 1.575 12.72 12.72 12.72
753 0 3 -1.05 10.6368 16.9232 16.9232
754 0 3 -1.05 14.8032 8.51684 8.51684
755 0 3 -1.05 12.6832 10.6368 12.6832
756 0 3 -1.05 12.7568 14.8032 12.7568
757 0 3 -1.05 16.9232 12.6832 14.8768
758 0 3 -1.05 8.51684 12.7568 10.5632
759 0 3 -1.05 14.8768 14.8768 10.6368
760 0 3 -1.05 10.5632 10.5632 14.8032
761 0 3 -1.05 16.9232 10.6368 16.9232
762 0 3 -1.05 8.51684 14.8032 8.51684
763 0 3 -1.05 12.6832 12.6832 10.6368
764 0 3 -1.05 12.7568 12.7568 14.8032
765 0 3 -1.05 14.8768 16.9232 12.6832
766 0 3 -1.05 10.5632 8.51684 12.7568
767 0 3 -1.05 10.6368 14.8768 14.8768
768 0 3 -1.05 14.8032 10.5632 10.5632
769 0 3 -1.05 16.9232 16.9232 10.6368
770 0 3 -1.05 8.51684 8.51684 14.8032
771 0 3 -1.05 10.6368 12.6832 12.6832
772 0 3 -1.05 14.8032 12.7568 12.7568
773 0 3 -1.05 12.6832 14.8768 16.9232
774 0 3 -1.05 12.7568 10.5632 8.51684
775 0 3 -1.05 14.8768 10.6368 14.8768
776 0 3 -1.05 10.5632 14.8032 10.5632
777 0 3 -1.05 12.7568 8.51684 10.5632
778 0 3 -1.05 12.6832 16.9232 14.8768
779 0 3 -1.05 8.51684 10.5632 12.7568
780 0 3 -1.05 16.9232 14.8768 12.6832
781 0 3 -1.05 10.5632 12.7568 8.51684
782 0 3 -1.05 14.8768 12.6832 16.9232
783 0 3 -1.05 10.6368 10.6368 10.6368
784 0 3 -1.05 14.8032 14.8032 14.8032
785 0 2 1.575 18.02 9.54 9.54
786 0 2 1.575 24.38 15.9 15.9
787 0 2 1.575 22.26 9.54 13.78
788 0 2 1.575 20.14 15.9 11.66
789 0 2 1.575 18.02 13.78 13.78
790 0 2 1.575 24.38 11.66 11.66
791 0 2 1.575 22.26 13.78 9.54
792 0 2 1.575 20.14 11.66 15.9
793 0 2 1.575 21.2 8.48 8.48
794 0 2 1.575 19.08 10.6 12.72
795 0 2 1.575 23.32 14.84 12.72
796 0 1 1.05 23.32 12.72 14.84
797 0 1 1.05 19.08 12.72 10.6
798 0 2 1.575 16.96 14.84 10.6
799 0 1 1.05 16.96 10.6 14.84
800 0 2 1.575 16.96 12.72 8.48
801 0 2 1.575 21.2 10.6 10.6
802 0 1 1.05 21.2 14.84 14.84
803 0 1 1.05 19.08 8.48 14.84
804 0 2 1.575 23.32 8.48 10.6
805 0 1 1.05 16.96 8.48 12.72
806 0 2 1.575 23.32 10.6 8.48
807 0 1 1.05 19.08 14.84 8.48
808 0 1 1.05 21.2 12.72 12.72
809 0 3 -1.05 19.1168 16.9232 16.9232
810 0 3 -1.05 23.2832 8.51684 8.51684
811 0 3 -1.05 21.1632 10.6368 12.6832
812 0 3 -1.05 21.2368 14.8032 12.7568
813 0 3 -1.05 -0.036835 12.6832 14.8768
814 0 3 -1.05 16.9968 12.7568 10.5632
815 0 3 -1.05 23.3568 14.8768 10.6368
816 0 3 -1.05 19.0432 10.5632 14.8032
817 0 3 -1.05 -0.036835 10.6368 16.9232
818 0 3 -1.05 16.9968 14.8032 8.51684
819 0 3 -1.05 21.1632 12.6832 10.6368
820 0 3 -1.05 21.2368 12.7568 14.8032
821 0 3 -1.05 23.3568 16.9232 12.6832
822 0 3 -1.05 19.0432 8.51684 12.7568
823 0 3 -1.05 19.1168 14.8768 14.8768
824 0 3 -1.05 23.2832 10.5632 10.5632
825 0 3 -1.05 -0.036835 16.9232 10.6368
826 0 3 -1.05 16.9968 8.51684 14.8032
827 0 3 -1.05 19.1168 12.6832 12.6832
828 0 3 -1.05 23.2832 12.7568 12.7568
829 0 3 -1.05 21.1632 14.8768 16.9232
830 0 3 -1.05 21.2368 10.5632 8.51684
831 0 3 -1.05 23.3568 10.6368 14.8768
832 0 3 -1.05 19.0432 14.8032 10.5632
833 0 3 -1.05 21.2368 8.51684 10.5632
834 0 3 -1.05 21.1632 16.9232 14.8768
835 0 3 -1.05 16.9968 10.5632 12.7568
836 0 3 -1.05 -0.036835 14.8768 12.6832
837 0 3 -1.05 19.0432 12.7568 8.51684
838 0 3 -1.05 23.3568 12.6832 16.9232
839 0 3 -1.05 19.1168 10.6368 10.6368
840 0 3 -1.05 23.2832 14.8032 14.8032
841 0 2 1.575 1.06 18.02 9.54
842 0 2 1.575 7.42 24.38 15.9
843 0 2 1.575 5.3 18.02 13.78
844 0 2 1.575 3.18 24.38 11.66
845 0 2 1.575 1.06 22.26 13.78
846 0 2 1.575 7.42 20.14 11.66
847 0 2 1.575 5.3 22.26 9.54
848 0 2 1.575 3.18 20.14 15.9
849 0 2 1.575 4.24 16.96 8.48
850 0 1 1.05 2.12 19.08 12.72
851 0 2 1.575 6.36 23.32 12.72
852 0 1 1.05 6.36 21.2 14.84
853 0 2 1.575 2.12 21.2 10.6
854 0 2 1.575 0 23.32 10.6
855 0 1 1.05 0 19.08 14.84
856 0 2 1.575 0 21.2 8.48
857 0 2 1.575 4.24 19.08 10.6
858 0 2 1.575 4.24 23.32 14.84
859 0 2 1.575 2.12 16.96 14.84
860 0 1 1.05 6.36 16.96 10.6
861 0 2 1.575 0 16.96 12.72
862 0 1 1.05 6.36 19.08 8.48
863 0 2 1.575 2.12 23.32 8.48
864 0 2 1.575 4.24 21.2 12.72
865 0 3 -1.05 2.15684 -0.036835 16.9232
866 0 3 -1.05 6.32316 16.9968 8.51684
867 0 3 -1.05 4.20317 19.1168 12.6832
868 0 3 -1.05 4.27684 23.2832 12.7568
869 0 3 -1.05 8.44317 21.1632 14.8768
870 0 3 -1.05 0.036835 21.2368 10.5632
871 0 3 -1.05 6.39683 23.3568 10.6368