LAMMPS data file via write_data, version 29 Sep 2021, timestep = 0

1344 atoms
3 atom types

-2.986976 21.153888000000002 xlo xhi
-1.110862 19.882498 ylo yhi
-0.829959 28.922973000000002 zlo zhi
-12.01056 -8.913936 -5.23746 xy xz yz

Masses

1 55.845001
2 55.845001
3 15.9994

Pair Coeffs # lj/cut/coul/long

1 9.0298e-07 4.9062
2 9.0298e-07 4.9062
3 0.1554 3.16554

Atoms # full

1 0 2 1.575 1.5162880000000007 2.62417 0 0 0 0
2 0 1 1.05 1.5319520000000035 -0.8729100000000001 4.9588220000000005 0 0 0
3 0 2 1.575 0.030632000000000215 1.7512600000000003 4.9588220000000005 0 0 0
4 0 2 1.575 -1.5013199999999978 2.62417 0 0 0 0
5 0 2 1.575 3.0176079999999996 0 0 0 0 0
6 0 1 1.05 -1.485656 -0.8729100000000001 4.9588220000000005 0 0 0
7 0 1 1.05 0.006851000000001939 3.479387 2.487533 0 0 0
8 0 1 1.05 0.054412999999998934 0.023133000000000514 7.43011 0 0 0
9 0 1 1.05 -0.010348000000000024 0.005903999999999909 1.8881999999999999 0 0 0
10 0 2 1.575 -2.9837179999999996 1.768822000000001 6.855155000000001 0 0 0
11 0 2 1.575 0.07161299999999882 3.4966160000000004 8.029443000000002 0 0 0
12 0 1 1.05 3.0449819999999987 1.7336980000000004 3.062489 0 0 0
13 0 3 -1.05 -0.030627999999999656 -0.022513999999999923 3.807006 0 0 0
14 0 3 -1.05 -2.984654000000001 1.8252250000000005 8.757726 0 0 0
15 0 3 -1.05 0.09189199999999964 3.5250340000000016 6.110637 0 0 0
16 0 3 -1.05 3.045918000000001 1.6772950000000004 1.1599180000000002 0 0 0
17 0 3 -1.05 3.1129470000000006 -0.0933790000000001 3.72589 0 0 0
18 0 3 -1.05 -0.00035200000000035203 1.6690899999999997 8.634092 0 0 0
19 0 3 -1.05 1.4801009999999999 0.833912 6.267335 0 0 0
20 0 3 -1.05 1.4232400000000003 4.392015000000001 1.221635 0 0 0
21 0 3 -1.05 -1.418836 2.668608 3.6503079999999994 0 0 0
22 0 3 -1.05 -1.3619749999999984 -0.8894950000000001 8.696008000000003 0 0 0
23 0 3 -1.05 -1.4434969999999985 0.762237 6.208891000000001 0 0 0
24 0 3 -1.05 -1.376803999999999 4.399527 1.2514979999999998 0 0 0
25 0 3 -1.05 -3.0516830000000006 3.595899 6.191753 0 0 0
26 0 3 -1.05 0.061616000000002114 1.8334289999999998 1.283551 0 0 0
27 0 3 -1.05 1.5047609999999971 2.740283 3.708752 0 0 0
28 0 3 -1.05 1.4380680000000043 -0.8970069999999999 8.666146 0 0 0
449 0 1 1.05 -1.4550240000000012 0.8783500000000006 9.917644000000001 0 0 0
450 0 2 1.575 -1.4393599999999984 -2.6187300000000002 14.876466000000002 0 0 0
451 0 2 1.575 -2.940680000000001 0.0054400000000005555 14.876466000000002 0 0 0
452 0 1 1.05 -4.472631999999999 0.8783500000000006 9.917644000000001 0 0 0
453 0 2 1.575 0.04629599999999945 -1.74582 9.917644000000001 0 0 0
454 0 2 1.575 -4.456967999999999 -2.6187300000000002 14.876466000000002 0 0 0
455 0 2 1.575 -2.9644609999999973 1.7335669999999994 12.405177000000002 0 0 0
456 0 2 1.575 -2.9168989999999986 -1.7226869999999987 17.347754000000002 0 0 0
457 0 2 1.575 -2.98166 -1.739916 11.805844 0 0 0
458 0 2 1.575 -5.95503 0.023002000000001743 16.772799 0 0 0
459 0 2 1.575 -2.8996990000000014 1.7507960000000007 17.947087000000003 0 0 0
460 0 2 1.575 0.07366999999999857 -0.012122000000000188 12.980133000000002 0 0 0
461 0 3 -1.05 -3.001939999999998 -1.7683340000000007 13.72465 0 0 0
462 0 3 -1.05 -5.955966 0.07940500000000039 18.67537 0 0 0
463 0 3 -1.05 -2.879419999999999 1.7792140000000018 16.028281 0 0 0
464 0 3 -1.05 0.07460600000000106 -0.06852499999999973 11.077562 0 0 0
465 0 3 -1.05 0.14163500000000306 -1.839199 13.643534 0 0 0
466 0 3 -1.05 -2.9716639999999974 -0.07673000000000085 18.551736000000002 0 0 0
467 0 3 -1.05 -1.4912109999999967 -0.9119080000000004 16.184979000000002 0 0 0
468 0 3 -1.05 -1.548072 2.6461950000000005 11.139279000000002 0 0 0
469 0 3 -1.05 -4.390148 0.9227879999999993 13.567952 0 0 0
470 0 3 -1.05 -4.333286999999999 -2.6353150000000003 18.613652000000002 0 0 0
471 0 3 -1.05 -4.414808999999998 -0.9835830000000012 16.126535000000004 0 0 0
472 0 3 -1.05 -4.348116 2.653707000000001 11.169142 0 0 0
473 0 3 -1.05 -6.022995000000001 1.8500790000000005 16.109397 0 0 0
474 0 3 -1.05 -2.909696 0.08760900000000005 11.201195000000002 0 0 0
475 0 3 -1.05 -1.4665510000000004 0.9944629999999997 13.626396000000002 0 0 0
476 0 3 -1.05 -1.5332440000000012 -2.6428270000000005 18.58379 0 0 0
897 0 1 1.05 -4.426335999999999 -0.86747 19.835288000000002 0 0 0
898 0 2 1.575 -4.410671999999996 -4.3645499999999995 24.794110000000003 0 0 0
899 0 1 1.05 -5.911991999999996 -1.7403799999999987 24.794110000000003 0 0 0
900 0 1 1.05 -7.443944 -0.86747 19.835288000000002 0 0 0
901 0 2 1.575 -2.925016 -3.4916399999999994 19.835288000000002 0 0 0
902 0 2 1.575 -7.428279999999997 -4.3645499999999995 24.794110000000003 0 0 0
903 0 2 1.575 -5.935772999999999 -0.012252999999999403 22.322821 0 0 0
904 0 1 1.05 -5.888211 -3.4685070000000007 27.265398 0 0 0
905 0 2 1.575 -5.952972000000001 -3.485736 21.723488000000003 0 0 0
906 0 2 1.575 -8.926341999999998 -1.722818000000001 26.690443000000002 0 0 0
907 0 2 1.575 -5.871010999999999 0.00497600000000098 27.864731000000006 0 0 0
908 0 1 1.05 -2.8976420000000016 -1.7579420000000003 22.897777 0 0 0
909 0 3 -1.05 -5.973251999999997 -3.5141539999999996 23.642294000000003 0 0 0
910 0 3 -1.05 -8.927277999999998 -1.6664149999999989 28.593014000000004 0 0 0
911 0 3 -1.05 -5.850732000000001 0.03339400000000037 25.945925000000003 0 0 0
912 0 3 -1.05 -2.896705999999997 -1.8143449999999994 20.995206000000003 0 0 0
913 0 3 -1.05 -2.8296769999999998 -3.585019 23.561178 0 0 0
914 0 3 -1.05 -5.942976 -1.8225500000000006 28.46938 0 0 0
915 0 3 -1.05 -4.462523000000001 -2.6577280000000014 26.102623 0 0 0
916 0 3 -1.05 -4.519383999999999 0.9003750000000013 21.056923 0 0 0
917 0 3 -1.05 -7.3614599999999975 -0.8230320000000004 23.485596 0 0 0
918 0 3 -1.05 -7.304599 -4.381135000000002 28.531296000000005 0 0 0
919 0 3 -1.05 -7.3861209999999975 -2.729403 26.044179000000003 0 0 0
920 0 3 -1.05 -7.319427999999997 0.907887000000001 21.086786000000004 0 0 0
921 0 3 -1.05 -8.994306999999997 0.10425899999999988 26.027041000000004 0 0 0
922 0 3 -1.05 -5.881008 -1.658211 21.118839 0 0 0
923 0 3 -1.05 -4.437862999999998 -0.7513569999999996 23.544040000000003 0 0 0
924 0 3 -1.05 -4.504556000000001 -4.388647000000002 28.501434000000003 0 0 0
113 0 2 1.575 -1.4863520000000003 7.872509999999999 0 0 0 0
114 0 1 1.05 -1.4706879999999996 4.37543 4.9588220000000005 0 0 0
115 0 2 1.575 -2.972008 6.9996 4.9588220000000005 0 0 0
116 0 1 1.05 -4.503959999999999 7.872509999999999 0 0 0 0
117 0 2 1.575 0.014967999999999648 5.248340000000002 0 0 0 0
118 0 1 1.05 -4.488296000000002 4.37543 4.9588220000000005 0 0 0
119 0 2 1.575 -2.9957889999999994 8.727726999999998 2.487533 0 0 0
120 0 2 1.575 -2.9482270000000006 5.271472999999999 7.43011 0 0 0
121 0 2 1.575 -3.012988 5.254244 1.8881999999999999 0 0 0
122 0 2 1.575 -5.986358000000001 7.017162000000002 6.855155000000001 0 0 0
123 0 1 1.05 -2.931026999999998 8.744955999999998 8.029443000000002 0 0 0
124 0 1 1.05 0.042341999999999214 6.982038 3.062489 0 0 0
125 0 3 -1.05 -3.033268 5.225826 3.807006 0 0 0
126 0 3 -1.05 -5.987294 7.073564999999999 8.757726 0 0 0
127 0 3 -1.05 -2.910748 8.773374 6.110637 0 0 0
128 0 3 -1.05 0.04327799999999993 6.925634999999999 1.1599180000000002 0 0 0
129 0 3 -1.05 0.1103070000000006 5.154961000000001 3.72589 0 0 0
130 0 3 -1.05 -3.002991999999999 6.91743 8.634092 0 0 0
131 0 3 -1.05 -1.5225390000000005 6.082252 6.267335 0 0 0
132 0 3 -1.05 -1.5793999999999992 9.640355 1.221635 0 0 0
133 0 3 -1.05 -4.421475999999999 7.916947999999999 3.6503079999999994 0 0 0
134 0 3 -1.05 -4.364615 4.358845 8.696008000000003 0 0 0
135 0 3 -1.05 -4.446136999999999 6.0105770000000005 6.208891000000001 0 0 0
136 0 3 -1.05 -4.3794439999999994 9.647866999999998 1.2514979999999998 0 0 0
137 0 3 -1.05 -6.054323 8.844239000000002 6.191753 0 0 0
138 0 3 -1.05 -2.9410239999999996 7.081768999999999 1.283551 0 0 0
139 0 3 -1.05 -1.4978790000000028 7.988623 3.708752 0 0 0
140 0 3 -1.05 -1.5645719999999979 4.3513329999999995 8.666146 0 0 0
561 0 2 1.575 -4.457663999999999 6.12669 9.917644000000001 0 0 0
562 0 2 1.575 -4.441999999999998 2.6296099999999996 14.876466000000002 0 0 0
563 0 1 1.05 -5.943320000000002 5.253780000000002 14.876466000000002 0 0 0
564 0 1 1.05 -7.475272 6.12669 9.917644000000001 0 0 0
565 0 2 1.575 -2.956344 3.5025199999999996 9.917644000000001 0 0 0
566 0 2 1.575 -7.459608000000001 2.6296099999999996 14.876466000000002 0 0 0
567 0 2 1.575 -5.967100999999998 6.9819070000000005 12.405177000000002 0 0 0
568 0 2 1.575 -5.919539 3.525653 17.347754000000002 0 0 0
569 0 1 1.05 -5.984299999999999 3.508423999999999 11.805844 0 0 0
570 0 1 1.05 -8.95767 5.271342000000002 16.772799 0 0 0
571 0 1 1.05 -5.902339000000001 6.999136000000003 17.947087000000003 0 0 0
572 0 1 1.05 -2.928970000000001 5.236217999999998 12.980133000000002 0 0 0
573 0 3 -1.05 -6.004580000000001 3.4800060000000004 13.72465 0 0 0
574 0 3 -1.05 -8.958605999999998 5.327745000000001 18.67537 0 0 0
575 0 3 -1.05 -5.882059999999999 7.027554000000001 16.028281 0 0 0
576 0 3 -1.05 -2.9280340000000002 5.179815 11.077562 0 0 0
577 0 3 -1.05 -2.861004999999999 3.409141000000001 13.643534 0 0 0
578 0 3 -1.05 -5.974303999999998 5.17161 18.551736000000002 0 0 0
579 0 3 -1.05 -4.493850999999998 4.336432 16.184979000000002 0 0 0
580 0 3 -1.05 -4.550711999999999 7.894535 11.139279000000002 0 0 0
581 0 3 -1.05 -7.392788000000001 6.171127999999999 13.567952 0 0 0
582 0 3 -1.05 -7.335926999999998 2.613025000000001 18.613652000000002 0 0 0
583 0 3 -1.05 -7.4174489999999995 4.264757 16.126535000000004 0 0 0
584 0 3 -1.05 -7.3507560000000005 7.9020470000000005 11.169142 0 0 0
585 0 3 -1.05 -9.025634999999998 7.098419000000001 16.109397 0 0 0
586 0 3 -1.05 -5.912336 5.335949 11.201195000000002 0 0 0
587 0 3 -1.05 -4.469190999999997 6.2428029999999985 13.626396000000002 0 0 0
588 0 3 -1.05 -4.535884000000001 2.605512999999999 18.58379 0 0 0
1009 0 2 1.575 -7.428975999999999 4.3808700000000025 19.835288000000002 0 0 0
1010 0 2 1.575 -7.413311999999994 0.8837900000000012 24.794110000000003 0 0 0
1011 0 2 1.575 -8.914631999999997 3.5079600000000006 24.794110000000003 0 0 0
1012 0 2 1.575 -10.446584 4.3808700000000025 19.835288000000002 0 0 0
1013 0 2 1.575 -5.927655999999999 1.7567 19.835288000000002 0 0 0
1014 0 2 1.575 -10.430919999999997 0.8837900000000012 24.794110000000003 0 0 0
1015 0 2 1.575 -8.938412999999997 5.236087 22.322821 0 0 0
1016 0 1 1.05 -8.890851000000001 1.779833 27.265398 0 0 0
1017 0 2 1.575 -8.955612 1.7626040000000005 21.723488000000003 0 0 0
1018 0 1 1.05 -11.928982 3.5255219999999996 26.690443000000002 0 0 0
1019 0 2 1.575 -8.873650999999999 5.2533160000000025 27.864731000000006 0 0 0
1020 0 2 1.575 -5.900282000000001 3.4903980000000008 22.897777 0 0 0
1021 0 3 -1.05 -8.975891999999996 1.7341860000000002 23.642294000000003 0 0 0
1022 0 3 -1.05 -11.929918 3.581925000000002 28.593014000000004 0 0 0
1023 0 3 -1.05 -8.853372 5.281734000000001 25.945925000000003 0 0 0
1024 0 3 -1.05 -5.8993459999999995 3.4339950000000004 20.995206000000003 0 0 0
1025 0 3 -1.05 -5.832317 1.6633210000000016 23.561178 0 0 0
1026 0 3 -1.05 -8.945616 3.425790000000001 28.46938 0 0 0
1027 0 3 -1.05 -7.465162999999999 2.590612 26.102623 0 0 0
1028 0 3 -1.05 -7.522023999999998 6.148715000000001 21.056923 0 0 0
1029 0 3 -1.05 -10.364099999999999 4.425307999999999 23.485596 0 0 0
1030 0 3 -1.05 -10.307238999999997 0.8672049999999993 28.531296000000005 0 0 0
1031 0 3 -1.05 -10.388760999999997 2.518937 26.044179000000003 0 0 0
1032 0 3 -1.05 -10.322067999999996 6.156227 21.086786000000004 0 0 0
1033 0 3 -1.05 -11.996946999999999 5.3525990000000006 26.027041000000004 0 0 0
1034 0 3 -1.05 -8.883647999999999 3.590129000000002 21.118839 0 0 0
1035 0 3 -1.05 -7.440502999999996 4.496983000000001 23.544040000000003 0 0 0
1036 0 3 -1.05 -7.507196 0.8596929999999983 28.501434000000003 0 0 0
225 0 2 1.575 -4.488992 13.120849999999997 0 0 0 0
226 0 1 1.05 -4.473328 9.62377 4.9588220000000005 0 0 0
227 0 1 1.05 -5.974648000000002 12.24794 4.9588220000000005 0 0 0
228 0 2 1.575 -7.506599999999995 13.120849999999997 0 0 0 0
229 0 1 1.05 -2.987672000000001 10.496679999999998 0 0 0 0
230 0 2 1.575 -7.490936000000001 9.62377 4.9588220000000005 0 0 0
231 0 1 1.05 -5.998428999999999 13.976067 2.487533 0 0 0
232 0 1 1.05 -5.950867000000001 10.519813 7.43011 0 0 0
233 0 2 1.575 -6.015628 10.502584000000006 1.8881999999999999 0 0 0
234 0 2 1.575 -8.988998 12.265502000000001 6.855155000000001 0 0 0
235 0 2 1.575 -5.933666999999998 13.993296000000004 8.029443000000002 0 0 0
236 0 1 1.05 -2.9602980000000008 12.230377999999998 3.062489 0 0 0
237 0 3 -1.05 -6.035908000000001 10.474166000000007 3.807006 0 0 0
238 0 3 -1.05 -8.989934000000002 12.321905000000001 8.757726 0 0 0
239 0 3 -1.05 -5.913388 14.021714000000006 6.110637 0 0 0
240 0 3 -1.05 -2.9593620000000014 12.173974999999999 1.1599180000000002 0 0 0
241 0 3 -1.05 -2.892333 10.403300999999999 3.72589 0 0 0
242 0 3 -1.05 -6.005631999999999 12.165770000000002 8.634092 0 0 0
243 0 3 -1.05 -4.525179000000001 11.330592 6.267335 0 0 0
244 0 3 -1.05 -4.582040000000003 14.888695000000006 1.221635 0 0 0
245 0 3 -1.05 -7.424115999999996 13.165288 3.6503079999999994 0 0 0
246 0 3 -1.05 -7.367255 9.607185000000005 8.696008000000003 0 0 0
247 0 3 -1.05 -7.448776999999998 11.258917 6.208891000000001 0 0 0
248 0 3 -1.05 -7.382084000000001 14.896207000000004 1.2514979999999998 0 0 0
249 0 3 -1.05 -9.056963000000001 14.092579 6.191753 0 0 0
250 0 3 -1.05 -5.943664 12.330109 1.283551 0 0 0
251 0 3 -1.05 -4.500519000000003 13.236963 3.708752 0 0 0
252 0 3 -1.05 -4.567211999999994 9.599673000000003 8.666146 0 0 0
673 0 2 1.575 -7.460304000000004 11.375029999999999 9.917644000000001 0 0 0
674 0 2 1.575 -7.444639999999998 7.877949999999999 14.876466000000002 0 0 0
675 0 2 1.575 -8.945959999999998 10.502119999999998 14.876466000000002 0 0 0
676 0 1 1.05 -10.477912000000003 11.375029999999999 9.917644000000001 0 0 0
677 0 1 1.05 -5.958984000000001 8.75086 9.917644000000001 0 0 0
678 0 1 1.05 -10.462247999999999 7.877949999999999 14.876466000000002 0 0 0
679 0 2 1.575 -8.969740999999999 12.230246999999999 12.405177000000002 0 0 0
680 0 2 1.575 -8.922178999999998 8.773993 17.347754000000002 0 0 0
681 0 2 1.575 -8.98694 8.756764 11.805844 0 0 0
682 0 1 1.05 -11.96031 10.519682 16.772799 0 0 0
683 0 2 1.575 -8.904979 12.247476000000006 17.947087000000003 0 0 0
684 0 2 1.575 -5.931610000000003 10.484557999999996 12.980133000000002 0 0 0
685 0 3 -1.05 -9.00722 8.728346000000005 13.72465 0 0 0
686 0 3 -1.05 -11.961246000000003 10.576084999999999 18.67537 0 0 0
687 0 3 -1.05 -8.884699999999997 12.275893999999997 16.028281 0 0 0
688 0 3 -1.05 -5.930674 10.428155 11.077562 0 0 0
689 0 3 -1.05 -5.863644999999998 8.657480999999997 13.643534 0 0 0
690 0 3 -1.05 -8.976943999999998 10.419949999999996 18.551736000000002 0 0 0
691 0 3 -1.05 -7.496490999999994 9.584771999999997 16.184979000000002 0 0 0
692 0 3 -1.05 -7.553351999999995 13.142875 11.139279000000002 0 0 0
693 0 3 -1.05 -10.395427999999999 11.419468000000002 13.567952 0 0 0
694 0 3 -1.05 -10.338567 7.861365000000004 18.613652000000002 0 0 0
695 0 3 -1.05 -10.420088999999997 9.513096999999998 16.126535000000004 0 0 0
696 0 3 -1.05 -10.353395999999998 13.150387000000006 11.169142 0 0 0
697 0 3 -1.05 -12.028274999999999 12.346759000000002 16.109397 0 0 0
698 0 3 -1.05 -8.914976 10.584288999999998 11.201195000000002 0 0 0
699 0 3 -1.05 -7.471830999999998 11.491142999999997 13.626396000000002 0 0 0
700 0 3 -1.05 -7.538524000000001 7.853852999999998 18.58379 0 0 0
1121 0 2 1.575 -10.431615999999996 9.629209999999997 19.835288000000002 0 0 0
1122 0 2 1.575 -10.415951999999997 6.132130000000002 24.794110000000003 0 0 0
1123 0 2 1.575 -11.917272000000002 8.7563 24.794110000000003 0 0 0
1124 0 2 1.575 -13.449224 9.629209999999997 19.835288000000002 0 0 0
1125 0 2 1.575 -8.930295999999997 7.00504 19.835288000000002 0 0 0
1126 0 1 1.05 -13.433559999999998 6.132130000000002 24.794110000000003 0 0 0
1127 0 2 1.575 -11.941053 10.484427 22.322821 0 0 0
1128 0 2 1.575 -11.893491000000001 7.028173 27.265398 0 0 0
1129 0 1 1.05 -11.958252 7.010943999999999 21.723488000000003 0 0 0
1130 0 2 1.575 -14.931621999999999 8.773861999999998 26.690443000000002 0 0 0
1131 0 2 1.575 -11.876290999999998 10.501656 27.864731000000006 0 0 0
1132 0 2 1.575 -8.902922 8.738737999999998 22.897777 0 0 0
1133 0 3 -1.05 -11.978531999999996 6.982526000000001 23.642294000000003 0 0 0
1134 0 3 -1.05 -14.932557999999998 8.830265 28.593014000000004 0 0 0
1135 0 3 -1.05 -11.856012000000003 10.530074000000006 25.945925000000003 0 0 0
1136 0 3 -1.05 -8.901986 8.682334999999998 20.995206000000003 0 0 0
1137 0 3 -1.05 -8.834956999999996 6.911661 23.561178 0 0 0
1138 0 3 -1.05 -11.948256 8.674129999999998 28.46938 0 0 0
1139 0 3 -1.05 -10.467803 7.838952 26.102623 0 0 0
1140 0 3 -1.05 -10.524663999999998 11.397055000000002 21.056923 0 0 0
1141 0 3 -1.05 -13.366739999999998 9.673648 23.485596 0 0 0
1142 0 3 -1.05 -13.309879000000002 6.115545000000001 28.531296000000005 0 0 0
1143 0 3 -1.05 -13.391401 7.767276999999999 26.044179000000003 0 0 0
1144 0 3 -1.05 -13.324707999999998 11.404567000000004 21.086786000000004 0 0 0
1145 0 3 -1.05 -14.999587000000002 10.600939 26.027041000000004 0 0 0
1146 0 3 -1.05 -11.886288000000002 8.838469000000007 21.118839 0 0 0
1147 0 3 -1.05 -10.443143 9.745323000000006 23.544040000000003 0 0 0
1148 0 3 -1.05 -10.509835999999998 6.108032999999997 28.501434000000003 0 0 0
337 0 2 1.575 -7.491632000000001 18.36919 0 0 0 0
338 0 1 1.05 -7.475968 14.87211 4.9588220000000005 0 0 0
339 0 2 1.575 -8.977288000000001 17.49628 4.9588220000000005 0 0 0
340 0 1 1.05 -10.50924 18.36919 0 0 0 0
341 0 2 1.575 -5.990312000000001 15.74502 0 0 0 0
342 0 1 1.05 -10.493576000000003 14.87211 4.9588220000000005 0 0 0
343 0 2 1.575 -9.001069 19.224407 2.487533 0 0 0
344 0 1 1.05 -8.953507000000002 15.768152999999998 7.43011 0 0 0
345 0 2 1.575 -9.018268 15.750923999999998 1.8881999999999999 0 0 0
346 0 2 1.575 -11.991638000000002 17.513842 6.855155000000001 0 0 0
347 0 2 1.575 3.074253 -1.7517239999999983 8.029443000000002 0 1 0
348 0 2 1.575 -5.962938000000001 17.478718 3.062489 0 0 0
349 0 3 -1.05 -9.038548000000002 15.722506000000006 3.807006 0 0 0
350 0 3 -1.05 -11.992574 17.570245 8.757726 0 0 0
351 0 3 -1.05 3.094531999999996 -1.7233059999999933 6.110637 0 1 0
352 0 3 -1.05 -5.962002000000003 17.422315 1.1599180000000002 0 0 0
353 0 3 -1.05 -5.894973000000001 15.651640999999998 3.72589 0 0 0
354 0 3 -1.05 -9.008272 17.41411 8.634092 0 0 0
355 0 3 -1.05 -7.527819000000001 16.578932000000002 6.267335 0 0 0
356 0 3 -1.05 4.425879999999998 -0.8563249999999947 1.221635 0 1 0
357 0 3 -1.05 -10.426756000000001 18.413628 3.6503079999999994 0 0 0
358 0 3 -1.05 -10.369894999999998 14.855525 8.696008000000003 0 0 0
359 0 3 -1.05 -10.451417000000001 16.507257 6.208891000000001 0 0 0
360 0 3 -1.05 1.6258359999999983 -0.8488129999999966 1.2514979999999998 0 1 0
361 0 3 -1.05 -0.049042999999999726 -1.6524409999999994 6.191753 0 1 0
362 0 3 -1.05 -8.946304 17.578449000000006 1.283551 0 0 0
363 0 3 -1.05 -7.503159000000004 18.485303000000005 3.708752 0 0 0
364 0 3 -1.05 -7.569851999999992 14.848012999999998 8.666146 0 0 0
785 0 2 1.575 -10.462944 16.62337 9.917644000000001 0 0 0
786 0 2 1.575 -10.447279999999997 13.126290000000001 14.876466000000002 0 0 0
787 0 2 1.575 -11.948600000000003 15.750459999999993 14.876466000000002 0 0 0
788 0 1 1.05 -13.480552000000003 16.62337 9.917644000000001 0 0 0
789 0 2 1.575 -8.961624000000004 13.999199999999998 9.917644000000001 0 0 0
790 0 1 1.05 -13.464888 13.126290000000001 14.876466000000002 0 0 0
791 0 2 1.575 -11.972380999999999 17.478587000000008 12.405177000000002 0 0 0
792 0 2 1.575 -11.924819 14.022333 17.347754000000002 0 0 0
793 0 2 1.575 -11.98958 14.005104 11.805844 0 0 0
794 0 1 1.05 -14.962950000000001 15.768022000000002 16.772799 0 0 0
795 0 2 1.575 0.10294099999999995 -3.4975439999999978 17.947087000000003 0 1 0
796 0 1 1.05 -8.934250000000002 15.732897999999995 12.980133000000002 0 0 0
797 0 3 -1.05 -12.009859999999998 13.976686000000004 13.72465 0 0 0
798 0 3 -1.05 -14.963886000000004 15.824425000000002 18.67537 0 0 0
799 0 3 -1.05 0.12321999999999766 -3.469125999999993 16.028281 0 1 0
800 0 3 -1.05 -8.933314 15.676495 11.077562 0 0 0
801 0 3 -1.05 -8.866285 13.905821 13.643534 0 0 0
802 0 3 -1.05 -11.979584000000003 15.668289999999999 18.551736000000002 0 0 0
803 0 3 -1.05 -10.499130999999998 14.833112 16.184979000000002 0 0 0
804 0 3 -1.05 1.4545680000000032 -2.602144999999995 11.139279000000002 0 1 0
805 0 3 -1.05 -13.398068000000004 16.667808000000008 13.567952 0 0 0
806 0 3 -1.05 -13.341206999999999 13.109705000000005 18.613652000000002 0 0 0
807 0 3 -1.05 -13.422728999999999 14.761437 16.126535000000004 0 0 0
808 0 3 -1.05 -1.3454760000000006 -2.5946329999999964 11.169142 0 1 0
809 0 3 -1.05 -3.020355000000001 -3.398260999999995 16.109397 0 1 0
810 0 3 -1.05 -11.917615999999997 15.832628999999997 11.201195000000002 0 0 0
811 0 3 -1.05 -10.474471 16.739483000000007 13.626396000000002 0 0 0
812 0 3 -1.05 -10.541164000000002 13.102193000000003 18.58379 0 0 0
1233 0 1 1.05 -13.434256000000001 14.87755 19.835288000000002 0 0 0
1234 0 1 1.05 -13.418592 11.380469999999999 24.794110000000003 0 0 0
1235 0 2 1.575 -14.919912000000002 14.004639999999998 24.794110000000003 0 0 0
1236 0 1 1.05 -16.451864 14.87755 19.835288000000002 0 0 0
1237 0 2 1.575 -11.932936000000003 12.25338 19.835288000000002 0 0 0
1238 0 1 1.05 -16.436199999999996 11.380469999999999 24.794110000000003 0 0 0
1239 0 2 1.575 -14.943693 15.732766999999999 22.322821 0 0 0
1240 0 2 1.575 -14.896131000000002 12.276512999999998 27.265398 0 0 0
1241 0 1 1.05 -14.960892000000003 12.259284000000005 21.723488000000003 0 0 0
1242 0 2 1.575 -17.934261999999997 14.022202 26.690443000000002 0 0 0
1243 0 2 1.575 -2.8683709999999976 -5.243363999999998 27.864731000000006 0 1 0
1244 0 1 1.05 -11.905562000000002 13.987077999999997 22.897777 0 0 0
1245 0 3 -1.05 -14.981171999999997 12.230865999999999 23.642294000000003 0 0 0
1246 0 3 -1.05 -17.935197999999993 14.078605 28.593014000000004 0 0 0
1247 0 3 -1.05 -2.8480920000000007 -5.214945999999999 25.945925000000003 0 1 0
1248 0 3 -1.05 -11.904625999999999 13.930675 20.995206000000003 0 0 0
1249 0 3 -1.05 -11.837596999999995 12.160001000000001 23.561178 0 0 0
1250 0 3 -1.05 -14.950896000000002 13.92247 28.46938 0 0 0
1251 0 3 -1.05 -13.470443000000001 13.087292000000001 26.102623 0 0 0
1252 0 3 -1.05 -1.516743999999997 -4.3479649999999985 21.056923 0 1 0
1253 0 3 -1.05 -16.36938 14.921987999999999 23.485596 0 0 0
1254 0 3 -1.05 -16.312519 11.363885 28.531296000000005 0 0 0
1255 0 3 -1.05 -16.394040999999994 13.015616999999999 26.044179000000003 0 0 0
1256 0 3 -1.05 -4.316787999999999 -4.340452999999997 21.086786000000004 0 1 0
1257 0 3 -1.05 -5.991666999999998 -5.144081000000001 26.027041000000004 0 1 0
1258 0 3 -1.05 -14.888927999999996 14.086808999999999 21.118839 0 0 0
1259 0 3 -1.05 -13.445782999999995 14.993663000000002 23.544040000000003 0 0 0
1260 0 3 -1.05 -13.512476000000001 11.356372999999994 28.501434000000003 0 0 0
29 0 1 1.05 7.551504000000003 2.62417 0 0 0 0
30 0 2 1.575 7.567168000000002 -0.8729100000000001 4.9588220000000005 0 0 0
31 0 2 1.575 6.065847999999999 1.7512600000000003 4.9588220000000005 0 0 0
32 0 2 1.575 4.533896000000004 2.62417 0 0 0 0
33 0 2 1.575 9.052823999999998 0 0 0 0 0
34 0 1 1.05 4.54956 -0.8729100000000001 4.9588220000000005 0 0 0
35 0 2 1.575 6.042067000000003 3.479387 2.487533 0 0 0
36 0 1 1.05 6.089628999999999 0.023133000000000514 7.43011 0 0 0
37 0 2 1.575 6.024868000000003 0.005903999999999909 1.8881999999999999 0 0 0
38 0 2 1.575 3.051498000000002 1.768822000000001 6.855155000000001 0 0 0
39 0 1 1.05 6.106828999999999 3.4966160000000004 8.029443000000002 0 0 0
40 0 2 1.575 9.080198000000001 1.7336980000000004 3.062489 0 0 0
41 0 3 -1.05 6.004588 -0.022513999999999923 3.807006 0 0 0
42 0 3 -1.05 3.0505620000000033 1.8252250000000005 8.757726 0 0 0
43 0 3 -1.05 6.127108 3.5250340000000016 6.110637 0 0 0
44 0 3 -1.05 9.081134 1.6772950000000004 1.1599180000000002 0 0 0
45 0 3 -1.05 9.148163 -0.0933790000000001 3.72589 0 0 0
46 0 3 -1.05 6.034864000000001 1.6690899999999997 8.634092 0 0 0
47 0 3 -1.05 7.515317000000001 0.833912 6.267335 0 0 0
48 0 3 -1.05 7.458456 4.392015000000001 1.221635 0 0 0
49 0 3 -1.05 4.616380000000001 2.668608 3.6503079999999994 0 0 0
50 0 3 -1.05 4.673241000000004 -0.8894950000000001 8.696008000000003 0 0 0
51 0 3 -1.05 4.591718999999999 0.762237 6.208891000000001 0 0 0
52 0 3 -1.05 4.658412000000002 4.399527 1.2514979999999998 0 0 0
53 0 3 -1.05 2.983532999999998 3.595899 6.191753 0 0 0
54 0 3 -1.05 6.0968320000000045 1.8334289999999998 1.283551 0 0 0
55 0 3 -1.05 7.539976999999999 2.740283 3.708752 0 0 0
56 0 3 -1.05 7.473284000000001 -0.8970069999999999 8.666146 0 0 0
477 0 2 1.575 4.5801919999999985 0.8783500000000006 9.917644000000001 0 0 0
478 0 1 1.05 4.595856000000003 -2.6187300000000002 14.876466000000002 0 0 0
479 0 1 1.05 3.0945359999999957 0.0054400000000005555 14.876466000000002 0 0 0
480 0 1 1.05 1.5625840000000015 0.8783500000000006 9.917644000000001 0 0 0
481 0 2 1.575 6.081512000000002 -1.74582 9.917644000000001 0 0 0
482 0 2 1.575 1.5782479999999999 -2.6187300000000002 14.876466000000002 0 0 0
483 0 2 1.575 3.0707550000000006 1.7335669999999994 12.405177000000002 0 0 0
484 0 1 1.05 3.1183170000000033 -1.7226869999999987 17.347754000000002 0 0 0
485 0 1 1.05 3.053555999999999 -1.739916 11.805844 0 0 0
486 0 1 1.05 0.08018600000000164 0.023002000000001743 16.772799 0 0 0
487 0 1 1.05 3.1355170000000006 1.7507960000000007 17.947087000000003 0 0 0
488 0 2 1.575 6.1088859999999965 -0.012122000000000188 12.980133000000002 0 0 0
489 0 3 -1.05 3.0332760000000003 -1.7683340000000007 13.72465 0 0 0
490 0 3 -1.05 0.0792499999999996 0.07940500000000039 18.67537 0 0 0
491 0 3 -1.05 3.1557959999999983 1.7792140000000018 16.028281 0 0 0
492 0 3 -1.05 6.109822000000001 -0.06852499999999973 11.077562 0 0 0
493 0 3 -1.05 6.176851000000001 -1.839199 13.643534 0 0 0
494 0 3 -1.05 3.0635520000000054 -0.07673000000000085 18.551736000000002 0 0 0
495 0 3 -1.05 4.544005000000006 -0.9119080000000004 16.184979000000002 0 0 0
496 0 3 -1.05 4.487144000000004 2.6461950000000005 11.139279000000002 0 0 0
497 0 3 -1.05 1.6450680000000006 0.9227879999999993 13.567952 0 0 0
498 0 3 -1.05 1.7019290000000038 -2.6353150000000003 18.613652000000002 0 0 0
499 0 3 -1.05 1.6204069999999988 -0.9835830000000012 16.126535000000004 0 0 0
500 0 3 -1.05 1.6871000000000014 2.653707000000001 11.169142 0 0 0
501 0 3 -1.05 0.012220999999998039 1.8500790000000005 16.109397 0 0 0
502 0 3 -1.05 3.1255200000000003 0.08760900000000005 11.201195000000002 0 0 0
503 0 3 -1.05 4.568664999999999 0.9944629999999997 13.626396000000002 0 0 0
504 0 3 -1.05 4.5019719999999985 -2.6428270000000005 18.58379 0 0 0
925 0 2 1.575 1.6088800000000032 -0.86747 19.835288000000002 0 0 0
926 0 2 1.575 1.6245440000000069 -4.3645499999999995 24.794110000000003 0 0 0
927 0 1 1.05 0.12322400000000178 -1.7403799999999987 24.794110000000003 0 0 0
928 0 2 1.575 -1.4087279999999995 -0.86747 19.835288000000002 0 0 0
929 0 2 1.575 3.1101999999999976 -3.4916399999999994 19.835288000000002 0 0 0
930 0 2 1.575 -1.3930639999999976 -4.3645499999999995 24.794110000000003 0 0 0
931 0 2 1.575 0.09944300000000128 -0.012252999999999403 22.322821 0 0 0
932 0 2 1.575 0.1470050000000005 -3.4685070000000007 27.265398 0 0 0
933 0 2 1.575 0.08224400000000243 -3.485736 21.723488000000003 0 0 0
934 0 2 1.575 -2.8911259999999976 -1.722818000000001 26.690443000000002 0 0 0
935 0 2 1.575 0.16420500000000127 0.00497600000000098 27.864731000000006 0 0 0
936 0 1 1.05 3.1375739999999994 -1.7579420000000003 22.897777 0 0 0
937 0 3 -1.05 0.06196400000000102 -3.5141539999999996 23.642294000000003 0 0 0
938 0 3 -1.05 -2.892061999999999 -1.6664149999999989 28.593014000000004 0 0 0
939 0 3 -1.05 0.1844839999999981 0.03339400000000037 25.945925000000003 0 0 0
940 0 3 -1.05 3.138510000000005 -1.8143449999999994 20.995206000000003 0 0 0
941 0 3 -1.05 3.205539000000002 -3.585019 23.561178 0 0 0
942 0 3 -1.05 0.09223999999999899 -1.8225500000000006 28.46938 0 0 0
943 0 3 -1.05 1.5726929999999997 -2.6577280000000014 26.102623 0 0 0
944 0 3 -1.05 1.5158320000000054 0.9003750000000013 21.056923 0 0 0
945 0 3 -1.05 -1.3262439999999969 -0.8230320000000004 23.485596 0 0 0
946 0 3 -1.05 -1.2693829999999973 -4.381135000000002 28.531296000000005 0 0 0
947 0 3 -1.05 -1.3509050000000005 -2.729403 26.044179000000003 0 0 0
948 0 3 -1.05 -1.2842119999999961 0.907887000000001 21.086786000000004 0 0 0
949 0 3 -1.05 -2.9590910000000004 0.10425899999999988 26.027041000000004 0 0 0
950 0 3 -1.05 0.154208000000001 -1.658211 21.118839 0 0 0
951 0 3 -1.05 1.597353000000004 -0.7513569999999996 23.544040000000003 0 0 0
952 0 3 -1.05 1.5306600000000032 -4.388647000000002 28.501434000000003 0 0 0
141 0 2 1.575 4.548864000000002 7.872509999999999 0 0 0 0
142 0 2 1.575 4.564528000000003 4.37543 4.9588220000000005 0 0 0
143 0 1 1.05 3.063208 6.9996 4.9588220000000005 0 0 0
144 0 2 1.575 1.5312560000000004 7.872509999999999 0 0 0 0
145 0 1 1.05 6.050184000000002 5.248340000000002 0 0 0 0
146 0 2 1.575 1.5469199999999996 4.37543 4.9588220000000005 0 0 0
147 0 2 1.575 3.0394270000000003 8.727726999999998 2.487533 0 0 0
148 0 1 1.05 3.0869889999999995 5.271472999999999 7.43011 0 0 0
149 0 2 1.575 3.022228000000004 5.254244 1.8881999999999999 0 0 0
150 0 2 1.575 0.048857999999998736 7.017162000000002 6.855155000000001 0 0 0
151 0 1 1.05 3.1041890000000065 8.744955999999998 8.029443000000002 0 0 0
152 0 2 1.575 6.077558000000003 6.982038 3.062489 0 0 0
153 0 3 -1.05 3.001947999999999 5.225826 3.807006 0 0 0
154 0 3 -1.05 0.04792199999999802 7.073564999999999 8.757726 0 0 0
155 0 3 -1.05 3.1244680000000007 8.773374 6.110637 0 0 0
156 0 3 -1.05 6.078493999999999 6.925634999999999 1.1599180000000002 0 0 0