ITEM: TIMESTEP
0
ITEM: NUMBER OF ATOMS
576
ITEM: BOX BOUNDS xy xz yz pp pp pp
-2.3911472000000000e+01 2.1153888000000002e+01 -1.2010560000000000e+01
-6.3483219999999996e+00 1.9882497999999998e+01 -8.9139359999999996e+00
-8.2995900000000000e-01 2.8922973000000002e+01 -5.2374599999999996e+00
ITEM: ATOMS id type c_coord
1 2 0
2 1 0
3 2 0
4 2 0
5 2 0
6 1 0
7 1 0
8 1 0
9 1 4
10 2 4
11 2 4
12 1 4
29 1 0
30 2 0
31 2 0
32 2 0
33 2 0
34 1 0
35 2 0
36 1 0
37 2 4
38 2 4
39 1 4
40 2 4
57 2 0
58 1 0
59 2 0
60 2 0
61 2 0
62 2 0
63 2 0
64 2 0
65 2 4
66 2 4
67 1 4
68 2 4
85 1 0
86 2 0
87 2 0
88 1 0
89 1 0
90 1 0
91 2 0
92 2 0
93 1 4
94 1 4
95 2 4
96 2 4
113 2 0
114 1 0
115 2 0
116 1 0
117 2 0
118 1 0
119 2 0
120 2 0
121 2 4
122 2 4
123 1 4
124 1 4
141 2 0
142 2 0
143 1 0
144 2 0
145 1 0
146 2 0
147 2 0
148 1 0
149 2 4
150 2 4
151 1 4
152 2 4
169 1 0
170 2 0
171 2 0
172 1 0
173 2 0
174 1 0
175 2 0
176 1 0
177 1 4
178 2 4
179 1 4
180 1 4
197 2 0
198 1 0
199 2 0
200 1 0
201 2 0
202 2 0
203 1 0
204 1 0
205 2 4
206 2 4
207 1 4
208 1 4
225 2 0
226 1 0
227 1 0
228 2 0
229 1 0
230 2 0
231 1 0
232 1 0
233 2 4
234 2 4
235 2 4
236 1 4
253 2 0
254 2 0
255 1 0
256 1 0
257 2 0
258 2 0
259 2 0
260 2 0
261 1 4
262 2 4
263 1 4
264 2 4
281 2 0
282 1 0
283 1 0
284 2 0
285 2 0
286 2 0
287 1 0
288 1 0
289 2 4
290 2 4
291 2 4
292 2 4
309 2 0
310 1 0
311 2 0
312 1 0
313 2 0
314 1 0
315 1 0
316 2 0
317 1 4
318 2 4
319 2 4
320 2 4
337 2 0
338 1 0
339 2 0
340 1 0
341 2 0
342 1 0
343 2 0
344 1 0
345 2 4
346 2 4
347 2 4
348 2 4
365 2 0
366 2 0
367 2 0
368 1 0
369 2 0
370 2 0
371 2 0
372 2 0
373 2 4
374 2 4
375 2 4
376 2 4
393 1 0
394 2 0
395 1 0
396 1 0
397 2 0
398 2 0
399 2 0
400 2 0
401 2 4
402 2 4
403 1 4
404 1 4
421 2 0
422 2 0
423 1 0
424 2 0
425 1 0
426 2 0
427 2 0
428 1 0
429 2 4
430 2 4
431 2 4
432 1 4
449 1 0
450 2 0
451 2 0
452 1 0
453 2 0
454 2 0
455 2 0
456 2 0
457 2 4
458 2 4
459 2 4
460 2 4
477 2 0
478 1 0
479 1 0
480 1 0
481 2 0
482 2 0
483 2 0
484 1 0
485 1 4
486 1 4
487 1 4
488 2 4
505 1 0
506 2 0
507 2 0
508 1 0
509 2 0
510 2 0
511 2 0
512 1 0
513 2 4
514 2 4
515 2 4
516 2 4
533 2 0
534 2 0
535 2 0
536 1 0
537 1 0
538 2 0
539 2 0
540 1 0
541 2 4
542 2 4
543 2 4
544 2 4
561 2 0
562 2 0
563 1 0
564 1 0
565 2 0
566 2 0
567 2 0
568 2 0
569 1 4
570 1 4
571 1 4
572 1 4
589 2 0
590 2 0
591 2 0
592 2 0
593 2 0
594 2 0
595 2 0
596 2 0
597 2 4
598 2 4
599 2 4
600 2 4
617 1 0
618 2 0
619 2 0
620 2 0
621 1 0
622 2 0
623 2 0
624 2 0
625 2 4
626 1 4
627 2 4
628 2 4
645 2 0
646 1 0
647 2 0
648 2 0
649 1 0
650 1 0
651 1 0
652 2 0
653 2 4
654 2 4
655 2 4
656 2 4
673 2 0
674 2 0
675 2 0
676 1 0
677 1 0
678 1 0
679 2 0
680 2 0
681 2 4
682 1 4
683 2 4
684 2 4
701 2 0
702 2 0
703 2 0
704 2 0
705 2 0
706 1 0
707 2 0
708 2 0
709 2 4
710 1 4
711 2 4
712 1 4
729 2 0
730 1 0
731 2 0
732 2 0
733 2 0
734 2 0
735 2 0
736 1 0
737 2 4
738 2 4
739 1 4
740 1 4
757 2 0
758 2 0
759 1 0
760 2 0
761 2 0
762 2 0
763 2 0
764 2 0
765 1 4
766 2 4
767 2 4
768 2 4
785 2 0
786 2 0
787 2 0
788 1 0
789 2 0
790 1 0
791 2 0
792 2 0
793 2 4
794 1 4
795 2 4
796 1 4
813 2 0
814 2 0
815 1 0
816 2 0
817 2 0
818 2 0
819 2 0
820 1 0
821 2 4
822 2 4
823 1 4
824 1 4
841 1 0
842 2 0
843 2 0
844 2 0
845 1 0
846 2 0
847 2 0
848 2 0
849 2 4
850 2 4
851 1 4
852 2 4
869 1 0
870 1 0
871 1 0
872 1 0
873 1 0
874 1 0
875 2 0
876 1 0
877 2 4
878 2 4
879 2 4
880 2 4
897 1 0
898 2 0
899 1 0
900 1 0
901 2 0
902 2 0
903 2 0
904 1 0
905 2 4
906 2 4
907 2 4
908 1 4
925 2 0
926 2 0
927 1 0
928 2 0
929 2 0
930 2 0
931 2 0
932 2 0
933 2 4
934 2 4
935 2 4
936 1 4
953 1 0
954 2 0
955 2 0
956 2 0
957 2 0
958 2 0
959 2 0
960 2 0
961 2 4
962 2 4
963 1 4
964 1 4
981 2 0
982 2 0
983 2 0
984 2 0
985 2 0
986 2 0
987 2 0
988 1 0
989 1 4
990 2 4
991 1 4
992 2 4
1009 2 0
1010 2 0
1011 2 0
1012 2 0
1013 2 0
1014 2 0
1015 2 0
1016 1 0
1017 2 4
1018 1 4
1019 2 4
1020 2 4
1037 2 0
1038 2 0
1039 1 0
1040 2 0
1041 2 0
1042 2 0
1043 2 0
1044 1 0
1045 1 4
1046 2 4
1047 1 4
1048 1 4
1065 1 0
1066 2 0
1067 1 0
1068 2 0
1069 2 0
1070 2 0
1071 2 0
1072 2 0
1073 1 4
1074 2 4
1075 1 4
1076 2 4
1093 2 0
1094 2 0
1095 2 0
1096 2 0
1097 2 0
1098 2 0
1099 2 0
1100 2 0
1101 2 4
1102 2 4
1103 2 4
1104 2 4
1121 2 0
1122 2 0
1123 2 0
1124 2 0
1125 2 0
1126 1 0
1127 2 0
1128 2 0
1129 1 4
1130 2 4
1131 2 4
1132 2 4
1149 1 0
1150 2 0
1151 1 0
1152 2 0
1153 2 0
1154 2 0
1155 1 0
1156 2 0
1157 2 4
1158 2 4
1159 1 4
1160 2 4
1177 2 0
1178 1 0
1179 2 0
1180 1 0
1181 1 0
1182 2 0
1183 2 0
1184 1 0
1185 2 4
1186 2 4
1187 2 4
1188 2 4
1205 2 0
1206 1 0
1207 1 0
1208 2 0
1209 2 0
1210 2 0
1211 1 0
1212 1 0
1213 2 4
1214 1 4
1215 2 4
1216 1 4
1233 1 0
1234 1 0
1235 2 0
1236 1 0
1237 2 0
1238 1 0
1239 2 0
1240 2 0
1241 1 4
1242 2 4
1243 2 4
1244 1 4
1261 2 0
1262 2 0
1263 1 0
1264 2 0
1265 2 0
1266 1 0
1267 2 0
1268 1 0
1269 2 4
1270 1 4
1271 1 4
1272 2 4
1289 1 0
1290 2 0
1291 2 0
1292 2 0
1293 2 0
1294 2 0
1295 1 0
1296 1 0
1297 2 4
1298 1 4
1299 2 4
1300 1 4
1317 2 0
1318 2 0
1319 2 0
1320 2 0
1321 2 0
1322 1 0
1323 2 0
1324 1 0
1325 2 4
1326 1 4
1327 1 4
1328 2 4
