ITEM: TIMESTEP
0
ITEM: NUMBER OF ATOMS
1344
ITEM: BOX BOUNDS xy xz yz pp pp pp
-2.3911472000000000e+01 2.1153888000000002e+01 -1.2010560000000000e+01
-6.3483219999999996e+00 1.9882497999999998e+01 -8.9139359999999996e+00
-8.2995900000000000e-01 2.8922973000000002e+01 -5.2374599999999996e+00
ITEM: ATOMS id mol type q x y z
1 0 2 1.575 1.51629 2.62417 0
2 0 1 1.05 1.53195 -0.87291 4.95882
3 0 2 1.575 0.030632 1.75126 4.95882
4 0 2 1.575 -1.50132 2.62417 0
5 0 2 1.575 3.01761 0 0
6 0 1 1.05 -1.48566 -0.87291 4.95882
7 0 1 1.05 0.006851 3.47939 2.48753
8 0 1 1.05 0.054413 0.023133 7.43011
9 0 1 1.05 -0.010348 0.005904 1.8882
10 0 2 1.575 -2.98372 1.76882 6.85516
11 0 2 1.575 0.071613 3.49662 8.02944
12 0 1 1.05 3.04498 1.7337 3.06249
13 0 3 -1.05 -0.030628 -0.022514 3.80701
14 0 3 -1.05 -2.98465 1.82523 8.75773
15 0 3 -1.05 0.091892 3.52503 6.11064
16 0 3 -1.05 3.04592 1.6773 1.15992
17 0 3 -1.05 3.11295 -0.093379 3.72589
18 0 3 -1.05 -0.000352 1.66909 8.63409
19 0 3 -1.05 1.4801 0.833912 6.26734
20 0 3 -1.05 1.42324 4.39202 1.22164
21 0 3 -1.05 -1.41884 2.66861 3.65031
22 0 3 -1.05 -1.36197 -0.889495 8.69601
23 0 3 -1.05 -1.4435 0.762237 6.20889
24 0 3 -1.05 -1.3768 4.39953 1.2515
25 0 3 -1.05 -3.05168 3.5959 6.19175
26 0 3 -1.05 0.061616 1.83343 1.28355
27 0 3 -1.05 1.50476 2.74028 3.70875
28 0 3 -1.05 1.43807 -0.897007 8.66615
29 0 1 1.05 7.5515 2.62417 0
30 0 2 1.575 7.56717 -0.87291 4.95882
31 0 2 1.575 6.06585 1.75126 4.95882
32 0 2 1.575 4.5339 2.62417 0
33 0 2 1.575 9.05282 0 0
34 0 1 1.05 4.54956 -0.87291 4.95882
35 0 2 1.575 6.04207 3.47939 2.48753
36 0 1 1.05 6.08963 0.023133 7.43011
37 0 2 1.575 6.02487 0.005904 1.8882
38 0 2 1.575 3.0515 1.76882 6.85516
39 0 1 1.05 6.10683 3.49662 8.02944
40 0 2 1.575 9.0802 1.7337 3.06249
41 0 3 -1.05 6.00459 -0.022514 3.80701
42 0 3 -1.05 3.05056 1.82523 8.75773
43 0 3 -1.05 6.12711 3.52503 6.11064
44 0 3 -1.05 9.08113 1.6773 1.15992
45 0 3 -1.05 9.14816 -0.093379 3.72589
46 0 3 -1.05 6.03486 1.66909 8.63409
47 0 3 -1.05 7.51532 0.833912 6.26734
48 0 3 -1.05 7.45846 4.39202 1.22164
49 0 3 -1.05 4.61638 2.66861 3.65031
50 0 3 -1.05 4.67324 -0.889495 8.69601
51 0 3 -1.05 4.59172 0.762237 6.20889
52 0 3 -1.05 4.65841 4.39953 1.2515
53 0 3 -1.05 2.98353 3.5959 6.19175
54 0 3 -1.05 6.09683 1.83343 1.28355
55 0 3 -1.05 7.53998 2.74028 3.70875
56 0 3 -1.05 7.47328 -0.897007 8.66615
57 0 2 1.575 13.5867 2.62417 0
58 0 1 1.05 13.6024 -0.87291 4.95882
59 0 2 1.575 12.1011 1.75126 4.95882
60 0 2 1.575 10.5691 2.62417 0
61 0 2 1.575 15.088 0 0
62 0 2 1.575 10.5848 -0.87291 4.95882
63 0 2 1.575 12.0773 3.47939 2.48753
64 0 2 1.575 12.1248 0.023133 7.43011
65 0 2 1.575 12.0601 0.005904 1.8882
66 0 2 1.575 9.08671 1.76882 6.85516
67 0 1 1.05 12.142 3.49662 8.02944
68 0 2 1.575 15.1154 1.7337 3.06249
69 0 3 -1.05 12.0398 -0.022514 3.80701
70 0 3 -1.05 9.08578 1.82523 8.75773
71 0 3 -1.05 12.1623 3.52503 6.11064
72 0 3 -1.05 15.1164 1.6773 1.15992
73 0 3 -1.05 15.1834 -0.093379 3.72589
74 0 3 -1.05 12.0701 1.66909 8.63409
75 0 3 -1.05 13.5505 0.833912 6.26734
76 0 3 -1.05 13.4937 4.39202 1.22164
77 0 3 -1.05 10.6516 2.66861 3.65031
78 0 3 -1.05 10.7085 -0.889495 8.69601
79 0 3 -1.05 10.6269 0.762237 6.20889
80 0 3 -1.05 10.6936 4.39953 1.2515
81 0 3 -1.05 9.01875 3.5959 6.19175
82 0 3 -1.05 12.132 1.83343 1.28355
83 0 3 -1.05 13.5752 2.74028 3.70875
84 0 3 -1.05 13.5085 -0.897007 8.66615
85 0 1 1.05 -4.51893 2.62417 0
86 0 2 1.575 -4.50326 -0.87291 4.95882
87 0 2 1.575 -6.00458 1.75126 4.95882
88 0 1 1.05 16.6043 2.62417 0
89 0 1 1.05 -3.01761 0 0
90 0 1 1.05 16.62 -0.87291 4.95882
91 0 2 1.575 -6.02836 3.47939 2.48753
92 0 2 1.575 -5.9808 0.023133 7.43011
93 0 1 1.05 18.0953 0.005904 1.8882
94 0 1 1.05 15.1219 1.76882 6.85516
95 0 2 1.575 -5.9636 3.49662 8.02944
96 0 2 1.575 -2.99023 1.7337 3.06249
97 0 3 -1.05 18.075 -0.022514 3.80701
98 0 3 -1.05 15.121 1.82523 8.75773
99 0 3 -1.05 -5.94332 3.52503 6.11064
100 0 3 -1.05 -2.9893 1.6773 1.15992
101 0 3 -1.05 -2.92227 -0.093379 3.72589
102 0 3 -1.05 -6.03557 1.66909 8.63409
103 0 3 -1.05 -4.55512 0.833912 6.26734
104 0 3 -1.05 -4.61198 4.39202 1.22164
105 0 3 -1.05 16.6868 2.66861 3.65031
106 0 3 -1.05 16.7437 -0.889495 8.69601
107 0 3 -1.05 16.6622 0.762237 6.20889
108 0 3 -1.05 16.7288 4.39953 1.2515
109 0 3 -1.05 15.054 3.5959 6.19175
110 0 3 -1.05 18.1673 1.83343 1.28355
111 0 3 -1.05 -4.53046 2.74028 3.70875
112 0 3 -1.05 -4.59715 -0.897007 8.66615
113 0 2 1.575 -1.48635 7.87251 0
114 0 1 1.05 -1.47069 4.37543 4.95882
115 0 2 1.575 -2.97201 6.9996 4.95882
116 0 1 1.05 -4.50396 7.87251 0
117 0 2 1.575 0.014968 5.24834 0
118 0 1 1.05 -4.4883 4.37543 4.95882
119 0 2 1.575 -2.99579 8.72773 2.48753
120 0 2 1.575 -2.94823 5.27147 7.43011
121 0 2 1.575 -3.01299 5.25424 1.8882
122 0 2 1.575 -5.98636 7.01716 6.85516
123 0 1 1.05 -2.93103 8.74496 8.02944
124 0 1 1.05 0.042342 6.98204 3.06249
125 0 3 -1.05 -3.03327 5.22583 3.80701
126 0 3 -1.05 -5.98729 7.07356 8.75773
127 0 3 -1.05 -2.91075 8.77337 6.11064
128 0 3 -1.05 0.043278 6.92563 1.15992
129 0 3 -1.05 0.110307 5.15496 3.72589
130 0 3 -1.05 -3.00299 6.91743 8.63409
131 0 3 -1.05 -1.52254 6.08225 6.26734
132 0 3 -1.05 -1.5794 9.64035 1.22164
133 0 3 -1.05 -4.42148 7.91695 3.65031
134 0 3 -1.05 -4.36461 4.35884 8.69601
135 0 3 -1.05 -4.44614 6.01058 6.20889
136 0 3 -1.05 -4.37944 9.64787 1.2515
137 0 3 -1.05 -6.05432 8.84424 6.19175
138 0 3 -1.05 -2.94102 7.08177 1.28355
139 0 3 -1.05 -1.49788 7.98862 3.70875
140 0 3 -1.05 -1.56457 4.35133 8.66615
141 0 2 1.575 4.54886 7.87251 0
142 0 2 1.575 4.56453 4.37543 4.95882
143 0 1 1.05 3.06321 6.9996 4.95882
144 0 2 1.575 1.53126 7.87251 0
145 0 1 1.05 6.05018 5.24834 0
146 0 2 1.575 1.54692 4.37543 4.95882
147 0 2 1.575 3.03943 8.72773 2.48753
148 0 1 1.05 3.08699 5.27147 7.43011
149 0 2 1.575 3.02223 5.25424 1.8882
150 0 2 1.575 0.048858 7.01716 6.85516
151 0 1 1.05 3.10419 8.74496 8.02944
152 0 2 1.575 6.07756 6.98204 3.06249
153 0 3 -1.05 3.00195 5.22583 3.80701
154 0 3 -1.05 0.047922 7.07356 8.75773
155 0 3 -1.05 3.12447 8.77337 6.11064
156 0 3 -1.05 6.07849 6.92563 1.15992
157 0 3 -1.05 6.14552 5.15496 3.72589
158 0 3 -1.05 3.03222 6.91743 8.63409
159 0 3 -1.05 4.51268 6.08225 6.26734
160 0 3 -1.05 4.45582 9.64035 1.22164
161 0 3 -1.05 1.61374 7.91695 3.65031
162 0 3 -1.05 1.6706 4.35884 8.69601
163 0 3 -1.05 1.58908 6.01058 6.20889
164 0 3 -1.05 1.65577 9.64787 1.2515
165 0 3 -1.05 -0.019107 8.84424 6.19175
166 0 3 -1.05 3.09419 7.08177 1.28355
167 0 3 -1.05 4.53734 7.98862 3.70875
168 0 3 -1.05 4.47064 4.35133 8.66615
169 0 1 1.05 10.5841 7.87251 0
170 0 2 1.575 10.5997 4.37543 4.95882
171 0 2 1.575 9.09842 6.9996 4.95882
172 0 1 1.05 7.56647 7.87251 0
173 0 2 1.575 12.0854 5.24834 0
174 0 1 1.05 7.58214 4.37543 4.95882
175 0 2 1.575 9.07464 8.72773 2.48753
176 0 1 1.05 9.12221 5.27147 7.43011
177 0 1 1.05 9.05744 5.25424 1.8882
178 0 2 1.575 6.08407 7.01716 6.85516
179 0 1 1.05 9.13941 8.74496 8.02944
180 0 1 1.05 12.1128 6.98204 3.06249
181 0 3 -1.05 9.03716 5.22583 3.80701
182 0 3 -1.05 6.08314 7.07356 8.75773
183 0 3 -1.05 9.15968 8.77337 6.11064
184 0 3 -1.05 12.1137 6.92563 1.15992
185 0 3 -1.05 12.1807 5.15496 3.72589
186 0 3 -1.05 9.06744 6.91743 8.63409
187 0 3 -1.05 10.5479 6.08225 6.26734
188 0 3 -1.05 10.491 9.64035 1.22164
189 0 3 -1.05 7.64896 7.91695 3.65031
190 0 3 -1.05 7.70582 4.35884 8.69601
191 0 3 -1.05 7.6243 6.01058 6.20889
192 0 3 -1.05 7.69099 9.64787 1.2515
193 0 3 -1.05 6.01611 8.84424 6.19175
194 0 3 -1.05 9.12941 7.08177 1.28355
195 0 3 -1.05 10.5726 7.98862 3.70875
196 0 3 -1.05 10.5059 4.35133 8.66615
197 0 2 1.575 -7.52157 7.87251 0
198 0 1 1.05 -7.5059 4.37543 4.95882
199 0 2 1.575 -9.00722 6.9996 4.95882
200 0 1 1.05 13.6017 7.87251 0
201 0 2 1.575 -6.02025 5.24834 0
202 0 2 1.575 13.6174 4.37543 4.95882
203 0 1 1.05 -9.03101 8.72773 2.48753
204 0 1 1.05 -8.98344 5.27147 7.43011
205 0 2 1.575 15.0927 5.25424 1.8882
206 0 2 1.575 12.1193 7.01716 6.85516
207 0 1 1.05 -8.96624 8.74496 8.02944
208 0 1 1.05 -5.99287 6.98204 3.06249
209 0 3 -1.05 15.0724 5.22583 3.80701
210 0 3 -1.05 12.1184 7.07356 8.75773
211 0 3 -1.05 -8.94596 8.77337 6.11064
212 0 3 -1.05 -5.99194 6.92563 1.15992
213 0 3 -1.05 -5.92491 5.15496 3.72589
214 0 3 -1.05 -9.03821 6.91743 8.63409
215 0 3 -1.05 -7.55776 6.08225 6.26734
216 0 3 -1.05 -7.61462 9.64035 1.22164
217 0 3 -1.05 13.6842 7.91695 3.65031
218 0 3 -1.05 13.741 4.35884 8.69601
219 0 3 -1.05 13.6595 6.01058 6.20889
220 0 3 -1.05 13.7262 9.64787 1.2515
221 0 3 -1.05 12.0513 8.84424 6.19175
222 0 3 -1.05 15.1646 7.08177 1.28355
223 0 3 -1.05 -7.5331 7.98862 3.70875
224 0 3 -1.05 -7.59979 4.35133 8.66615
225 0 2 1.575 -4.48899 13.1208 0
226 0 1 1.05 -4.47333 9.62377 4.95882
227 0 1 1.05 -5.97465 12.2479 4.95882
228 0 2 1.575 -7.5066 13.1208 0
229 0 1 1.05 -2.98767 10.4967 0
230 0 2 1.575 -7.49094 9.62377 4.95882
231 0 1 1.05 -5.99843 13.9761 2.48753
232 0 1 1.05 -5.95087 10.5198 7.43011
233 0 2 1.575 -6.01563 10.5026 1.8882
234 0 2 1.575 -8.989 12.2655 6.85516
235 0 2 1.575 -5.93367 13.9933 8.02944
236 0 1 1.05 -2.9603 12.2304 3.06249
237 0 3 -1.05 -6.03591 10.4742 3.80701
238 0 3 -1.05 -8.98993 12.3219 8.75773
239 0 3 -1.05 -5.91339 14.0217 6.11064
240 0 3 -1.05 -2.95936 12.174 1.15992
241 0 3 -1.05 -2.89233 10.4033 3.72589
242 0 3 -1.05 -6.00563 12.1658 8.63409
243 0 3 -1.05 -4.52518 11.3306 6.26734
244 0 3 -1.05 -4.58204 14.8887 1.22164
245 0 3 -1.05 -7.42412 13.1653 3.65031
246 0 3 -1.05 -7.36726 9.60719 8.69601
247 0 3 -1.05 -7.44878 11.2589 6.20889
248 0 3 -1.05 -7.38208 14.8962 1.2515
249 0 3 -1.05 -9.05696 14.0926 6.19175
250 0 3 -1.05 -5.94366 12.3301 1.28355
251 0 3 -1.05 -4.50052 13.237 3.70875
252 0 3 -1.05 -4.56721 9.59967 8.66615
253 0 2 1.575 1.54622 13.1208 0
254 0 2 1.575 1.56189 9.62377 4.95882
255 0 1 1.05 0.060568 12.2479 4.95882
256 0 1 1.05 -1.47138 13.1208 0
257 0 2 1.575 3.04754 10.4967 0
258 0 2 1.575 -1.45572 9.62377 4.95882
259 0 2 1.575 0.036787 13.9761 2.48753
260 0 2 1.575 0.084349 10.5198 7.43011
261 0 1 1.05 0.019588 10.5026 1.8882
262 0 2 1.575 -2.95378 12.2655 6.85516
263 0 1 1.05 0.101549 13.9933 8.02944
264 0 2 1.575 3.07492 12.2304 3.06249
265 0 3 -1.05 -0.000692 10.4742 3.80701
266 0 3 -1.05 -2.95472 12.3219 8.75773
267 0 3 -1.05 0.121828 14.0217 6.11064
268 0 3 -1.05 3.07585 12.174 1.15992
269 0 3 -1.05 3.14288 10.4033 3.72589
270 0 3 -1.05 0.029584 12.1658 8.63409
271 0 3 -1.05 1.51004 11.3306 6.26734
272 0 3 -1.05 1.45318 14.8887 1.22164
273 0 3 -1.05 -1.3889 13.1653 3.65031
274 0 3 -1.05 -1.33204 9.60719 8.69601
275 0 3 -1.05 -1.41356 11.2589 6.20889
276 0 3 -1.05 -1.34687 14.8962 1.2515
277 0 3 -1.05 -3.02175 14.0926 6.19175
278 0 3 -1.05 0.091552 12.3301 1.28355
279 0 3 -1.05 1.5347 13.237 3.70875
280 0 3 -1.05 1.468 9.59967 8.66615
281 0 2 1.575 7.58144 13.1208 0
282 0 1 1.05 7.5971 9.62377 4.95882
283 0 1 1.05 6.09578 12.2479 4.95882
284 0 2 1.575 4.56383 13.1208 0
285 0 2 1.575 9.08276 10.4967 0
286 0 2 1.575 4.5795 9.62377 4.95882
287 0 1 1.05 6.072 13.9761 2.48753
288 0 1 1.05 6.11956 10.5198 7.43011
289 0 2 1.575 6.0548 10.5026 1.8882
290 0 2 1.575 3.08143 12.2655 6.85516
291 0 2 1.575 6.13677 13.9933 8.02944
292 0 2 1.575 9.11013 12.2304 3.06249
293 0 3 -1.05 6.03452 10.4742 3.80701
294 0 3 -1.05 3.0805 12.3219 8.75773
295 0 3 -1.05 6.15704 14.0217 6.11064
296 0 3 -1.05 9.11107 12.174 1.15992
297 0 3 -1.05 9.1781 10.4033 3.72589
298 0 3 -1.05 6.0648 12.1658 8.63409
299 0 3 -1.05 7.54525 11.3306 6.26734
300 0 3 -1.05 7.48839 14.8887 1.22164
301 0 3 -1.05 4.64632 13.1653 3.65031
302 0 3 -1.05 4.70318 9.60719 8.69601
303 0 3 -1.05 4.62166 11.2589 6.20889
304 0 3 -1.05 4.68835 14.8962 1.2515
305 0 3 -1.05 3.01347 14.0926 6.19175
306 0 3 -1.05 6.12677 12.3301 1.28355
307 0 3 -1.05 7.56991 13.237 3.70875
308 0 3 -1.05 7.50322 9.59967 8.66615
309 0 2 1.575 -10.5242 13.1208 0
310 0 1 1.05 -10.5085 9.62377 4.95882
311 0 2 1.575 -12.0099 12.2479 4.95882
312 0 1 1.05 10.599 13.1208 0
313 0 2 1.575 -9.02289 10.4967 0
314 0 1 1.05 10.6147 9.62377 4.95882
315 0 1 1.05 -12.0336 13.9761 2.48753
316 0 2 1.575 -11.9861 10.5198 7.43011
317 0 1 1.05 12.09 10.5026 1.8882
318 0 2 1.575 9.11665 12.2655 6.85516
319 0 2 1.575 -11.9689 13.9933 8.02944
320 0 2 1.575 -8.99551 12.2304 3.06249
321 0 3 -1.05 12.0697 10.4742 3.80701
322 0 3 -1.05 9.11571 12.3219 8.75773
323 0 3 -1.05 -11.9486 14.0217 6.11064
324 0 3 -1.05 -8.99458 12.174 1.15992
325 0 3 -1.05 -8.92755 10.4033 3.72589
326 0 3 -1.05 -12.0408 12.1658 8.63409
327 0 3 -1.05 -10.5604 11.3306 6.26734
328 0 3 -1.05 -10.6173 14.8887 1.22164
329 0 3 -1.05 10.6815 13.1653 3.65031
330 0 3 -1.05 10.7384 9.60719 8.69601
331 0 3 -1.05 10.6569 11.2589 6.20889
332 0 3 -1.05 10.7236 14.8962 1.2515
333 0 3 -1.05 9.04869 14.0926 6.19175
334 0 3 -1.05 12.162 12.3301 1.28355
335 0 3 -1.05 -10.5357 13.237 3.70875
336 0 3 -1.05 -10.6024 9.59967 8.66615
337 0 2 1.575 -7.49163 18.3692 0
338 0 1 1.05 -7.47597 14.8721 4.95882
339 0 2 1.575 -8.97729 17.4963 4.95882
340 0 1 1.05 -10.5092 18.3692 0
341 0 2 1.575 -5.99031 15.745 0
342 0 1 1.05 -10.4936 14.8721 4.95882
343 0 2 1.575 -9.00107 19.2244 2.48753
344 0 1 1.05 -8.95351 15.7682 7.43011
345 0 2 1.575 -9.01827 15.7509 1.8882
346 0 2 1.575 -11.9916 17.5138 6.85516
347 0 2 1.575 3.07425 -1.75172 8.02944
348 0 2 1.575 -5.96294 17.4787 3.06249
349 0 3 -1.05 -9.03855 15.7225 3.80701
350 0 3 -1.05 -11.9926 17.5702 8.75773
351 0 3 -1.05 3.09453 -1.72331 6.11064
352 0 3 -1.05 -5.962 17.4223 1.15992
353 0 3 -1.05 -5.89497 15.6516 3.72589
354 0 3 -1.05 -9.00827 17.4141 8.63409
355 0 3 -1.05 -7.52782 16.5789 6.26734
356 0 3 -1.05 4.42588 -0.856325 1.22164
357 0 3 -1.05 -10.4268 18.4136 3.65031
358 0 3 -1.05 -10.3699 14.8555 8.69601
359 0 3 -1.05 -10.4514 16.5073 6.20889
360 0 3 -1.05 1.62584 -0.848813 1.2515
361 0 3 -1.05 -0.049043 -1.65244 6.19175
362 0 3 -1.05 -8.9463 17.5784 1.28355
363 0 3 -1.05 -7.50316 18.4853 3.70875
364 0 3 -1.05 -7.56985 14.848 8.66615
365 0 2 1.575 -1.45642 18.3692 0
366 0 2 1.575 -1.44075 14.8721 4.95882
367 0 2 1.575 -2.94207 17.4963 4.95882
368 0 1 1.05 -4.47402 18.3692 0
369 0 2 1.575 0.044904 15.745 0
370 0 2 1.575 -4.45836 14.8721 4.95882
371 0 2 1.575 -2.96585 19.2244 2.48753
372 0 2 1.575 -2.91829 15.7682 7.43011
373 0 2 1.575 -2.98305 15.7509 1.8882
374 0 2 1.575 -5.95642 17.5138 6.85516
375 0 2 1.575 9.10947 -1.75172 8.02944
376 0 2 1.575 0.072278 17.4787 3.06249
377 0 3 -1.05 -3.00333 15.7225 3.80701
378 0 3 -1.05 -5.95736 17.5702 8.75773
379 0 3 -1.05 9.12975 -1.72331 6.11064
380 0 3 -1.05 0.073214 17.4223 1.15992
381 0 3 -1.05 0.140243 15.6516 3.72589
382 0 3 -1.05 -2.97306 17.4141 8.63409
383 0 3 -1.05 -1.4926 16.5789 6.26734
384 0 3 -1.05 10.4611 -0.856325 1.22164
385 0 3 -1.05 -4.39154 18.4136 3.65031
386 0 3 -1.05 -4.33468 14.8555 8.69601
387 0 3 -1.05 -4.4162 16.5073 6.20889
388 0 3 -1.05 7.66105 -0.848813 1.2515
389 0 3 -1.05 5.98617 -1.65244 6.19175
390 0 3 -1.05 -2.91109 17.5784 1.28355
391 0 3 -1.05 -1.46794 18.4853 3.70875
392 0 3 -1.05 -1.53464 14.848 8.66615
393 0 1 1.05 4.5788 18.3692 0
394 0 2 1.575 4.59446 14.8721 4.95882
395 0 1 1.05 3.09314 17.4963 4.95882
396 0 1 1.05 1.56119 18.3692 0
397 0 2 1.575 6.08012 15.745 0
398 0 2 1.575 1.57686 14.8721 4.95882
399 0 2 1.575 3.06936 19.2244 2.48753
400 0 2 1.575 3.11693 15.7682 7.43011
401 0 2 1.575 3.05216 15.7509 1.8882
402 0 2 1.575 0.078794 17.5138 6.85516
403 0 1 1.05 15.1447 -1.75172 8.02944
404 0 1 1.05 6.10749 17.4787 3.06249
405 0 3 -1.05 3.03188 15.7225 3.80701
406 0 3 -1.05 0.077858 17.5702 8.75773
407 0 3 -1.05 15.165 -1.72331 6.11064
408 0 3 -1.05 6.10843 17.4223 1.15992
409 0 3 -1.05 6.17546 15.6516 3.72589
410 0 3 -1.05 3.06216 17.4141 8.63409
411 0 3 -1.05 4.54261 16.5789 6.26734
412 0 3 -1.05 16.4963 -0.856325 1.22164
413 0 3 -1.05 1.64368 18.4136 3.65031
414 0 3 -1.05 1.70054 14.8555 8.69601
415 0 3 -1.05 1.61902 16.5073 6.20889
416 0 3 -1.05 13.6963 -0.848813 1.2515
417 0 3 -1.05 12.0214 -1.65244 6.19175
418 0 3 -1.05 3.12413 17.5784 1.28355
419 0 3 -1.05 4.56727 18.4853 3.70875
420 0 3 -1.05 4.50058 14.848 8.66615
421 0 2 1.575 -13.5268 18.3692 0
422 0 2 1.575 -13.5112 14.8721 4.95882
423 0 1 1.05 -15.0125 17.4963 4.95882
424 0 2 1.575 7.59641 18.3692 0
425 0 1 1.05 -12.0255 15.745 0
426 0 2 1.575 7.61207 14.8721 4.95882
427 0 2 1.575 -15.0363 19.2244 2.48753
428 0 1 1.05 -14.9887 15.7682 7.43011
429 0 2 1.575 9.08738 15.7509 1.8882
430 0 2 1.575 6.11401 17.5138 6.85516
431 0 2 1.575 -2.96096 -1.75172 8.02944
432 0 1 1.05 -11.9982 17.4787 3.06249
433 0 3 -1.05 9.0671 15.7225 3.80701
434 0 3 -1.05 6.11307 17.5702 8.75773
435 0 3 -1.05 -2.94068 -1.72331 6.11064
436 0 3 -1.05 -11.9972 17.4223 1.15992
437 0 3 -1.05 -11.9302 15.6516 3.72589
438 0 3 -1.05 -15.0435 17.4141 8.63409
439 0 3 -1.05 -13.563 16.5789 6.26734
440 0 3 -1.05 -1.60934 -0.856325 1.22164
441 0 3 -1.05 7.67889 18.4136 3.65031
442 0 3 -1.05 7.73575 14.8555 8.69601
443 0 3 -1.05 7.65423 16.5073 6.20889
444 0 3 -1.05 19.7315 -0.848813 1.2515
445 0 3 -1.05 18.0566 -1.65244 6.19175
446 0 3 -1.05 9.15934 17.5784 1.28355
447 0 3 -1.05 -13.5384 18.4853 3.70875
448 0 3 -1.05 -13.6051 14.848 8.66615
449 0 1 1.05 -1.45502 0.87835 9.91764
450 0 2 1.575 -1.43936 -2.61873 14.8765
451 0 2 1.575 -2.94068 0.00544 14.8765
452 0 1 1.05 -4.47263 0.87835 9.91764
453 0 2 1.575 0.046296 -1.74582 9.91764
454 0 2 1.575 -4.45697 -2.61873 14.8765
455 0 2 1.575 -2.96446 1.73357 12.4052
456 0 2 1.575 -2.9169 -1.72269 17.3478
457 0 2 1.575 -2.98166 -1.73992 11.8058
458 0 2 1.575 -5.95503 0.023002 16.7728
459 0 2 1.575 -2.8997 1.7508 17.9471
460 0 2 1.575 0.07367 -0.012122 12.9801
461 0 3 -1.05 -3.00194 -1.76833 13.7247
462 0 3 -1.05 -5.95597 0.079405 18.6754
463 0 3 -1.05 -2.87942 1.77921 16.0283
464 0 3 -1.05 0.074606 -0.068525 11.0776
465 0 3 -1.05 0.141635 -1.8392 13.6435
466 0 3 -1.05 -2.97166 -0.07673 18.5517
467 0 3 -1.05 -1.49121 -0.911908 16.185
468 0 3 -1.05 -1.54807 2.6462 11.1393
469 0 3 -1.05 -4.39015 0.922788 13.568
470 0 3 -1.05 -4.33329 -2.63532 18.6137
471 0 3 -1.05 -4.41481 -0.983583 16.1265
472 0 3 -1.05 -4.34812 2.65371 11.1691
473 0 3 -1.05 -6.023 1.85008 16.1094
474 0 3 -1.05 -2.9097 0.087609 11.2012
475 0 3 -1.05 -1.46655 0.994463 13.6264
476 0 3 -1.05 -1.53324 -2.64283 18.5838
477 0 2 1.575 4.58019 0.87835 9.91764
478 0 1 1.05 4.59586 -2.61873 14.8765
479 0 1 1.05 3.09454 0.00544 14.8765
480 0 1 1.05 1.56258 0.87835 9.91764
481 0 2 1.575 6.08151 -1.74582 9.91764
482 0 2 1.575 1.57825 -2.61873 14.8765
483 0 2 1.575 3.07076 1.73357 12.4052
484 0 1 1.05 3.11832 -1.72269 17.3478
485 0 1 1.05 3.05356 -1.73992 11.8058
486 0 1 1.05 0.080186 0.023002 16.7728
487 0 1 1.05 3.13552 1.7508 17.9471
488 0 2 1.575 6.10889 -0.012122 12.9801
489 0 3 -1.05 3.03328 -1.76833 13.7247
490 0 3 -1.05 0.07925 0.079405 18.6754
491 0 3 -1.05 3.1558 1.77921 16.0283
492 0 3 -1.05 6.10982 -0.068525 11.0776
493 0 3 -1.05 6.17685 -1.8392 13.6435
494 0 3 -1.05 3.06355 -0.07673 18.5517
495 0 3 -1.05 4.54401 -0.911908 16.185
496 0 3 -1.05 4.48714 2.6462 11.1393
497 0 3 -1.05 1.64507 0.922788 13.568
498 0 3 -1.05 1.70193 -2.63532 18.6137
499 0 3 -1.05 1.62041 -0.983583 16.1265
500 0 3 -1.05 1.6871 2.65371 11.1691
501 0 3 -1.05 0.012221 1.85008 16.1094
502 0 3 -1.05 3.12552 0.087609 11.2012
503 0 3 -1.05 4.56866 0.994463 13.6264
504 0 3 -1.05 4.50197 -2.64283 18.5838
505 0 1 1.05 10.6154 0.87835 9.91764
506 0 2 1.575 10.6311 -2.61873 14.8765
507 0 2 1.575 9.12975 0.00544 14.8765
508 0 1 1.05 7.5978 0.87835 9.91764
509 0 2 1.575 12.1167 -1.74582 9.91764
510 0 2 1.575 7.61346 -2.61873 14.8765
511 0 2 1.575 9.10597 1.73357 12.4052
512 0 1 1.05 9.15353 -1.72269 17.3478
513 0 2 1.575 9.08877 -1.73992 11.8058
514 0 2 1.575 6.1154 0.023002 16.7728
515 0 2 1.575 9.17073 1.7508 17.9471
516 0 2 1.575 12.1441 -0.012122 12.9801
517 0 3 -1.05 9.06849 -1.76833 13.7247
518 0 3 -1.05 6.11447 0.079405 18.6754
519 0 3 -1.05 9.19101 1.77921 16.0283
520 0 3 -1.05 12.145 -0.068525 11.0776
521 0 3 -1.05 12.2121 -1.8392 13.6435
522 0 3 -1.05 9.09877 -0.07673 18.5517
523 0 3 -1.05 10.5792 -0.911908 16.185
524 0 3 -1.05 10.5224 2.6462 11.1393
525 0 3 -1.05 7.68028 0.922788 13.568
526 0 3 -1.05 7.73715 -2.63532 18.6137
527 0 3 -1.05 7.65562 -0.983583 16.1265
528 0 3 -1.05 7.72232 2.65371 11.1691
529 0 3 -1.05 6.04744 1.85008 16.1094
530 0 3 -1.05 9.16074 0.087609 11.2012
531 0 3 -1.05 10.6039 0.994463 13.6264
532 0 3 -1.05 10.5372 -2.64283 18.5838
533 0 2 1.575 -7.49024 0.87835 9.91764
534 0 2 1.575 -7.47458 -2.61873 14.8765
535 0 2 1.575 -8.9759 0.00544 14.8765
536 0 1 1.05 13.633 0.87835 9.91764
537 0 1 1.05 -5.98892 -1.74582 9.91764
538 0 2 1.575 13.6487 -2.61873 14.8765
539 0 2 1.575 -8.99968 1.73357 12.4052
540 0 1 1.05 -8.95211 -1.72269 17.3478
541 0 2 1.575 15.124 -1.73992 11.8058
542 0 2 1.575 12.1506 0.023002 16.7728
543 0 2 1.575 -8.93491 1.7508 17.9471
544 0 2 1.575 -5.96155 -0.012122 12.9801
545 0 3 -1.05 15.1037 -1.76833 13.7247
546 0 3 -1.05 12.1497 0.079405 18.6754
547 0 3 -1.05 -8.91464 1.77921 16.0283
548 0 3 -1.05 -5.96061 -0.068525 11.0776
549 0 3 -1.05 -5.89358 -1.8392 13.6435
550 0 3 -1.05 -9.00688 -0.07673 18.5517
551 0 3 -1.05 -7.52643 -0.911908 16.185
552 0 3 -1.05 -7.58329 2.6462 11.1393
553 0 3 -1.05 13.7155 0.922788 13.568
554 0 3 -1.05 13.7724 -2.63532 18.6137
555 0 3 -1.05 13.6908 -0.983583 16.1265
556 0 3 -1.05 13.7575 2.65371 11.1691
557 0 3 -1.05 12.0827 1.85008 16.1094
558 0 3 -1.05 15.196 0.087609 11.2012
559 0 3 -1.05 -7.50177 0.994463 13.6264
560 0 3 -1.05 -7.56846 -2.64283 18.5838
561 0 2 1.575 -4.45766 6.12669 9.91764
562 0 2 1.575 -4.442 2.62961 14.8765
563 0 1 1.05 -5.94332 5.25378 14.8765
564 0 1 1.05 -7.47527 6.12669 9.91764
565 0 2 1.575 -2.95634 3.50252 9.91764
566 0 2 1.575 -7.45961 2.62961 14.8765
567 0 2 1.575 -5.9671 6.98191 12.4052
568 0 2 1.575 -5.91954 3.52565 17.3478
569 0 1 1.05 -5.9843 3.50842 11.8058
570 0 1 1.05 -8.95767 5.27134 16.7728
571 0 1 1.05 -5.90234 6.99914 17.9471
572 0 1 1.05 -2.92897 5.23622 12.9801
573 0 3 -1.05 -6.00458 3.48001 13.7247
574 0 3 -1.05 -8.95861 5.32775 18.6754
575 0 3 -1.05 -5.88206 7.02755 16.0283
576 0 3 -1.05 -2.92803 5.17981 11.0776
577 0 3 -1.05 -2.861 3.40914 13.6435
578 0 3 -1.05 -5.9743 5.17161 18.5517
579 0 3 -1.05 -4.49385 4.33643 16.185
580 0 3 -1.05 -4.55071 7.89454 11.1393
581 0 3 -1.05 -7.39279 6.17113 13.568
582 0 3 -1.05 -7.33593 2.61303 18.6137
583 0 3 -1.05 -7.41745 4.26476 16.1265
584 0 3 -1.05 -7.35076 7.90205 11.1691
585 0 3 -1.05 -9.02563 7.09842 16.1094
586 0 3 -1.05 -5.91234 5.33595 11.2012
587 0 3 -1.05 -4.46919 6.2428 13.6264
588 0 3 -1.05 -4.53588 2.60551 18.5838
589 0 2 1.575 1.57755 6.12669 9.91764
590 0 2 1.575 1.59322 2.62961 14.8765
591 0 2 1.575 0.091896 5.25378 14.8765
592 0 2 1.575 -1.44006 6.12669 9.91764
593 0 2 1.575 3.07887 3.50252 9.91764
594 0 2 1.575 -1.42439 2.62961 14.8765
595 0 2 1.575 0.068115 6.98191 12.4052
596 0 2 1.575 0.115677 3.52565 17.3478
597 0 2 1.575 0.050916 3.50842 11.8058
598 0 2 1.575 -2.92245 5.27134 16.7728
599 0 2 1.575 0.132877 6.99914 17.9471
600 0 2 1.575 3.10625 5.23622 12.9801
601 0 3 -1.05 0.030636 3.48001 13.7247
602 0 3 -1.05 -2.92339 5.32775 18.6754
603 0 3 -1.05 0.153156 7.02755 16.0283
604 0 3 -1.05 3.10718 5.17981 11.0776
605 0 3 -1.05 3.17421 3.40914 13.6435
606 0 3 -1.05 0.060912 5.17161 18.5517
607 0 3 -1.05 1.54137 4.33643 16.185
608 0 3 -1.05 1.4845 7.89454 11.1393
609 0 3 -1.05 -1.35757 6.17113 13.568
610 0 3 -1.05 -1.30071 2.61303 18.6137
611 0 3 -1.05 -1.38223 4.26476 16.1265
612 0 3 -1.05 -1.31554 7.90205 11.1691
613 0 3 -1.05 -2.99042 7.09842 16.1094
614 0 3 -1.05 0.12288 5.33595 11.2012
615 0 3 -1.05 1.56603 6.2428 13.6264
616 0 3 -1.05 1.49933 2.60551 18.5838
617 0 1 1.05 7.61277 6.12669 9.91764
618 0 2 1.575 7.62843 2.62961 14.8765
619 0 2 1.575 6.12711 5.25378 14.8765
620 0 2 1.575 4.59516 6.12669 9.91764
621 0 1 1.05 9.11409 3.50252 9.91764
622 0 2 1.575 4.61082 2.62961 14.8765
623 0 2 1.575 6.10333 6.98191 12.4052
624 0 2 1.575 6.15089 3.52565 17.3478
625 0 2 1.575 6.08613 3.50842 11.8058
626 0 1 1.05 3.11276 5.27134 16.7728
627 0 2 1.575 6.16809 6.99914 17.9471
628 0 2 1.575 9.14146 5.23622 12.9801
629 0 3 -1.05 6.06585 3.48001 13.7247
630 0 3 -1.05 3.11183 5.32775 18.6754
631 0 3 -1.05 6.18837 7.02755 16.0283
632 0 3 -1.05 9.1424 5.17981 11.0776
633 0 3 -1.05 9.20943 3.40914 13.6435
634 0 3 -1.05 6.09613 5.17161 18.5517
635 0 3 -1.05 7.57658 4.33643 16.185
636 0 3 -1.05 7.51972 7.89454 11.1393
637 0 3 -1.05 4.67764 6.17113 13.568
638 0 3 -1.05 4.73451 2.61303 18.6137
639 0 3 -1.05 4.65298 4.26476 16.1265
640 0 3 -1.05 4.71968 7.90205 11.1691
641 0 3 -1.05 3.0448 7.09842 16.1094
642 0 3 -1.05 6.1581 5.33595 11.2012
643 0 3 -1.05 7.60124 6.2428 13.6264
644 0 3 -1.05 7.53455 2.60551 18.5838
645 0 2 1.575 -10.4929 6.12669 9.91764
646 0 1 1.05 -10.4772 2.62961 14.8765
647 0 2 1.575 -11.9785 5.25378 14.8765
648 0 2 1.575 10.6304 6.12669 9.91764
649 0 1 1.05 -8.99156 3.50252 9.91764
650 0 1 1.05 10.646 2.62961 14.8765
651 0 1 1.05 -12.0023 6.98191 12.4052
652 0 2 1.575 -11.9548 3.52565 17.3478
653 0 2 1.575 12.1213 3.50842 11.8058
654 0 2 1.575 9.14798 5.27134 16.7728
655 0 2 1.575 -11.9376 6.99914 17.9471
656 0 2 1.575 -8.96419 5.23622 12.9801
657 0 3 -1.05 12.1011 3.48001 13.7247
658 0 3 -1.05 9.14704 5.32775 18.6754
659 0 3 -1.05 -11.9173 7.02755 16.0283
660 0 3 -1.05 -8.96325 5.17981 11.0776
661 0 3 -1.05 -8.89622 3.40914 13.6435
662 0 3 -1.05 -12.0095 5.17161 18.5517
663 0 3 -1.05 -10.5291 4.33643 16.185
664 0 3 -1.05 -10.5859 7.89454 11.1393
665 0 3 -1.05 10.7129 6.17113 13.568
666 0 3 -1.05 10.7697 2.61303 18.6137
667 0 3 -1.05 10.6882 4.26476 16.1265
668 0 3 -1.05 10.7549 7.90205 11.1691
669 0 3 -1.05 9.08001 7.09842 16.1094
670 0 3 -1.05 12.1933 5.33595 11.2012
671 0 3 -1.05 -10.5044 6.2428 13.6264
672 0 3 -1.05 -10.5711 2.60551 18.5838
673 0 2 1.575 -7.4603 11.375 9.91764
674 0 2 1.575 -7.44464 7.87795 14.8765
675 0 2 1.575 -8.94596 10.5021 14.8765
676 0 1 1.05 -10.4779 11.375 9.91764
677 0 1 1.05 -5.95898 8.75086 9.91764
678 0 1 1.05 -10.4622 7.87795 14.8765
679 0 2 1.575 -8.96974 12.2302 12.4052
680 0 2 1.575 -8.92218 8.77399 17.3478
681 0 2 1.575 -8.98694 8.75676 11.8058
682 0 1 1.05 -11.9603 10.5197 16.7728
683 0 2 1.575 -8.90498 12.2475 17.9471
684 0 2 1.575 -5.93161 10.4846 12.9801
685 0 3 -1.05 -9.00722 8.72835 13.7247
686 0 3 -1.05 -11.9612 10.5761 18.6754
687 0 3 -1.05 -8.8847 12.2759 16.0283
688 0 3 -1.05 -5.93067 10.4282 11.0776
689 0 3 -1.05 -5.86364 8.65748 13.6435
690 0 3 -1.05 -8.97694 10.4199 18.5517
691 0 3 -1.05 -7.49649 9.58477 16.185
692 0 3 -1.05 -7.55335 13.1429 11.1393
693 0 3 -1.05 -10.3954 11.4195 13.568
694 0 3 -1.05 -10.3386 7.86137 18.6137
695 0 3 -1.05 -10.4201 9.5131 16.1265
696 0 3 -1.05 -10.3534 13.1504 11.1691
697 0 3 -1.05 -12.0283 12.3468 16.1094
698 0 3 -1.05 -8.91498 10.5843 11.2012
699 0 3 -1.05 -7.47183 11.4911 13.6264
700 0 3 -1.05 -7.53852 7.85385 18.5838
701 0 2 1.575 -1.42509 11.375 9.91764
702 0 2 1.575 -1.40942 7.87795 14.8765
703 0 2 1.575 -2.91074 10.5021 14.8765
704 0 2 1.575 -4.4427 11.375 9.91764
705 0 2 1.575 0.076232 8.75086 9.91764
706 0 1 1.05 -4.42703 7.87795 14.8765
707 0 2 1.575 -2.93453 12.2302 12.4052
708 0 2 1.575 -2.88696 8.77399 17.3478
709 0 2 1.575 -2.95172 8.75676 11.8058
710 0 1 1.05 -5.92509 10.5197 16.7728
711 0 2 1.575 -2.86976 12.2475 17.9471
712 0 1 1.05 0.103606 10.4846 12.9801
713 0 3 -1.05 -2.972 8.72835 13.7247
714 0 3 -1.05 -5.92603 10.5761 18.6754
715 0 3 -1.05 -2.84948 12.2759 16.0283
716 0 3 -1.05 0.104542 10.4282 11.0776
717 0 3 -1.05 0.171571 8.65748 13.6435
718 0 3 -1.05 -2.94173 10.4199 18.5517
719 0 3 -1.05 -1.46127 9.58477 16.185
720 0 3 -1.05 -1.51814 13.1429 11.1393
721 0 3 -1.05 -4.36021 11.4195 13.568
722 0 3 -1.05 -4.30335 7.86137 18.6137
723 0 3 -1.05 -4.38487 9.5131 16.1265
724 0 3 -1.05 -4.31818 13.1504 11.1691
725 0 3 -1.05 -5.99306 12.3468 16.1094
726 0 3 -1.05 -2.87976 10.5843 11.2012
727 0 3 -1.05 -1.43661 11.4911 13.6264
728 0 3 -1.05 -1.50331 7.85385 18.5838
729 0 2 1.575 4.61013 11.375 9.91764
730 0 1 1.05 4.62579 7.87795 14.8765
731 0 2 1.575 3.12447 10.5021 14.8765
732 0 2 1.575 1.59252 11.375 9.91764
733 0 2 1.575 6.11145 8.75086 9.91764
734 0 2 1.575 1.60818 7.87795 14.8765
735 0 2 1.575 3.10069 12.2302 12.4052
736 0 1 1.05 3.14825 8.77399 17.3478
737 0 2 1.575 3.08349 8.75676 11.8058
738 0 2 1.575 0.110122 10.5197 16.7728
739 0 1 1.05 3.16545 12.2475 17.9471
740 0 1 1.05 6.13882 10.4846 12.9801
741 0 3 -1.05 3.06321 8.72835 13.7247
742 0 3 -1.05 0.109186 10.5761 18.6754
743 0 3 -1.05 3.18573 12.2759 16.0283
744 0 3 -1.05 6.13976 10.4282 11.0776
745 0 3 -1.05 6.20679 8.65748 13.6435
746 0 3 -1.05 3.09349 10.4199 18.5517
747 0 3 -1.05 4.57394 9.58477 16.185
748 0 3 -1.05 4.51708 13.1429 11.1393
749 0 3 -1.05 1.675 11.4195 13.568
750 0 3 -1.05 1.73187 7.86137 18.6137
751 0 3 -1.05 1.65034 9.5131 16.1265
752 0 3 -1.05 1.71704 13.1504 11.1691
753 0 3 -1.05 0.042157 12.3468 16.1094
754 0 3 -1.05 3.15546 10.5843 11.2012
755 0 3 -1.05 4.5986 11.4911 13.6264
756 0 3 -1.05 4.53191 7.85385 18.5838
757 0 2 1.575 -13.4955 11.375 9.91764
758 0 2 1.575 -13.4799 7.87795 14.8765
759 0 1 1.05 -14.9812 10.5021 14.8765
760 0 2 1.575 7.62774 11.375 9.91764
761 0 2 1.575 -11.9942 8.75086 9.91764
762 0 2 1.575 7.6434 7.87795 14.8765
763 0 2 1.575 -15.005 12.2302 12.4052
764 0 2 1.575 -14.9574 8.77399 17.3478
765 0 1 1.05 9.11871 8.75676 11.8058
766 0 2 1.575 6.14534 10.5197 16.7728
767 0 2 1.575 -14.9402 12.2475 17.9471
768 0 2 1.575 -11.9668 10.4846 12.9801
769 0 3 -1.05 9.09843 8.72835 13.7247
770 0 3 -1.05 6.1444 10.5761 18.6754
771 0 3 -1.05 -14.9199 12.2759 16.0283
772 0 3 -1.05 -11.9659 10.4282 11.0776
773 0 3 -1.05 -11.8989 8.65748 13.6435
774 0 3 -1.05 -15.0122 10.4199 18.5517
775 0 3 -1.05 -13.5317 9.58477 16.185
776 0 3 -1.05 -13.5886 13.1429 11.1393
777 0 3 -1.05 7.71022 11.4195 13.568
778 0 3 -1.05 7.76708 7.86137 18.6137
779 0 3 -1.05 7.68556 9.5131 16.1265
780 0 3 -1.05 7.75225 13.1504 11.1691
781 0 3 -1.05 6.07737 12.3468 16.1094
782 0 3 -1.05 9.19067 10.5843 11.2012
783 0 3 -1.05 -13.507 11.4911 13.6264
784 0 3 -1.05 -13.5737 7.85385 18.5838
785 0 2 1.575 -10.4629 16.6234 9.91764