LAMMPS (29 Sep 2021 - Update 2)
variable temp index 100000 90000 81000 72900 65610 59049 53144 47829 43046 38741 34866 31379 28241 25416 22874 20586 18527 16674 15006 13505 12154 10938 9844 8859 7973 7175 6457 5811 5229 4706 4235 3811 3429 3086 2777 2499 2249 2024 1821 1638 1474 1326 1193 1073 965 868 781 702 631 567 510 459 413 371 333 299 269 242 217 195 175 157 141 126 113 101 90 81 72 64 57 51 45 40 36 32 28 25 22 19 17 15 13 11 9 8 7 6 5 4 3 2 1
variable rand equal round(random(0,1e7,452345))

include settings.lmp
units              real
atom_style         full
timestep	   1.0
boundary	   p p p

pair_style         lj/cut/coul/long 12.0
kspace_style       pppm 1.0e-6

pair_modify        mix arithmetic
special_bonds      amber
neighbor           2.0 bin
neigh_modify       every 1 delay 0 check yes

read_data magnetite_bulk_3x3x3.data
Reading data file ...
  orthogonal box = (-0.25841700 -0.25841700 -0.25841700) to (25.181583 25.181583 25.181583)
  2 by 4 by 5 MPI processor grid
  reading atoms ...
  1512 atoms
  reading velocities ...
  1512 velocities
Finding 1-2 1-3 1-4 neighbors ...
  special bond factors lj:    0        0        0.5     
  special bond factors coul:  0        0        0.8333333333333334
     0 = max # of 1-2 neighbors
     0 = max # of 1-3 neighbors
     0 = max # of 1-4 neighbors
     1 = max # of special neighbors
  special bonds CPU = 0.002 seconds
  read_data CPU = 0.035 seconds

include  ff_formic_acid_fe304.param
#####################-----magnetite-----#########################################

mass  1   55.845   # Iron(II)
mass  2   55.845   # Iron(III)
mass  3   15.9994  # Bridging oxygen

pair_coeff  1  1   9.0298e-07  4.90620  # fe2
pair_coeff  2  2   9.0298e-07  4.90620  # fe3
pair_coeff  3  3   0.1554      3.16554  # ob

##################################################################################

dump  dmp all custom 1000 swap.lammpstrj id mol type q x y z
dump_modify dmp sort id

group  fe type 1 2
648 atoms in group fe
variable nfe equal count(fe)
variable nsteps equal round(${nfe}*${nfe})  # Each 100K there are fe*fe swap attempts.
variable nsteps equal round(648*${nfe})  
variable nsteps equal round(648*648)  
variable pe1 equal 0.0  # Initial pe decleration

compute  coord fe coord/atom cutoff 2.0
dump coord  fe custom 1 fe.coord id type c_coord
dump_modify  coord sort id
run  0
WARNING: No fixes defined, atoms won't move (../verlet.cpp:55)
PPPM initialization ...
  using 12-bit tables for long-range coulomb (../kspace.cpp:340)
  G vector (1/distance) = 0.2971196
  grid = 40 40 40
  stencil order = 5
  estimated absolute RMS force accuracy = 0.00037285856
  estimated relative force accuracy = 1.1228525e-06
  using double precision KISS FFT
  3d grid and FFT values/proc = 9367 1600
Neighbor list info ...
  update every 1 steps, delay 0 steps, check yes
  max neighbors/atom: 2000, page size: 100000
  master list distance cutoff = 14
  ghost atom cutoff = 14
  binsize = 7, bins = 4 4 4
  2 neighbor lists, perpetual/occasional/extra = 1 1 0
  (1) pair lj/cut/coul/long, perpetual
      attributes: half, newton on
      pair build: half/bin/newton
      stencil: half/bin/3d
      bin: standard
  (2) compute coord/atom, occasional
      attributes: full, newton on
      pair build: full/bin
      stencil: full/bin/3d
      bin: standard
Per MPI rank memory allocation (min/avg/max) = 10.28 | 10.30 | 10.31 Mbytes
Step Temp E_pair E_mol TotEng Press 
       0            0   -282119.82            0   -282119.82    1192.6469 
Loop time of 4.79778e-05 on 40 procs for 0 steps with 1512 atoms

95.8% CPU use with 40 MPI tasks x no OpenMP threads

MPI task timing breakdown:
Section |  min time  |  avg time  |  max time  |%varavg| %total
---------------------------------------------------------------
Pair    | 0          | 0          | 0          |   0.0 |  0.00
Bond    | 0          | 0          | 0          |   0.0 |  0.00
Kspace  | 0          | 0          | 0          |   0.0 |  0.00
Neigh   | 0          | 0          | 0          |   0.0 |  0.00
Comm    | 0          | 0          | 0          |   0.0 |  0.00
Output  | 0          | 0          | 0          |   0.0 |  0.00
Modify  | 0          | 0          | 0          |   0.0 |  0.00
Other   |            | 4.798e-05  |            |       |100.00

Nlocal:        37.8000 ave          46 max          31 min
Histogram: 10 4 10 0 0 0 0 0 2 14
Nghost:        4111.80 ave        4225 max        3982 min
Histogram: 16 0 0 0 0 0 0 0 16 8
Neighs:        20320.2 ave       27074 max       13387 min
Histogram: 6 2 0 6 5 6 6 1 3 5
FullNghs:      40640.4 ave       49427 max       33332 min
Histogram: 10 4 10 0 0 0 0 0 2 14

Total # of neighbors = 1625616
Ave neighs/atom = 1075.1429
Ave special neighs/atom = 0.0000000
Neighbor list builds = 0
Dangerous builds = 0
variable  fet atom c_coord==4
group  fet variable fet
216 atoms in group fet
group  feo subtract fe fet
432 atoms in group feo
undump  coord

set  group all mol 0
Setting atom values ...
  1512 settings made for mol
set  group fet mol 1
Setting atom values ...
  216 settings made for mol
set  group feo mol 2
Setting atom values ...
  432 settings made for mol

variable  fet3 atom "gmask(fet) && q == 1.575"
group  fet3 dynamic fe var fet3 every 100
dynamic group fet3 defined
variable  rfet3 equal count(fet3)/count(fet)

variable  feo3 atom "gmask(feo) && q == 1.575"
group  feo3 dynamic fe var feo3 every 100
dynamic group feo3 defined
variable  rfeo3 equal count(feo3)/count(feo)

variable cnum equal 93

label temp_loop

  variable ftemp equal v_temp
  # Electrostatic relaxation-long
  fix  swp fe atom/swap 1 1 ${rand} ${temp} ke no types 1 2
  fix  swp fe atom/swap 1 1 855824 ${temp} ke no types 1 2
  fix  swp fe atom/swap 1 1 855824 100000 ke no types 1 2
  thermo  1000
  thermo_style custom step v_ftemp pe f_swp[1] f_swp[2] v_rfet3 v_rfeo3
  run  ${nsteps}
  run  419904
PPPM initialization ...
  using 12-bit tables for long-range coulomb (../kspace.cpp:340)
  G vector (1/distance) = 0.2971196
  grid = 40 40 40
  stencil order = 5
  estimated absolute RMS force accuracy = 0.00037285856
  estimated relative force accuracy = 1.1228525e-06
  using double precision KISS FFT
  3d grid and FFT values/proc = 9367 1600
Per MPI rank memory allocation (min/avg/max) = 9.017 | 9.032 | 9.038 Mbytes
Step v_ftemp PotEng f_swp[1] f_swp[2] v_rfet3 v_rfeo3 
       0       100000   -282119.82            0            0            1          0.5 
    1000       100000   -281687.28         1000          899   0.68055556   0.65972222 
    2000       100000    -281693.2         2000         1803   0.71759259    0.6412037 
    3000       100000   -281052.38         3000         2702   0.66666667   0.66666667 
    4000       100000   -281348.58         4000         3611    0.6712963   0.66435185 
    5000       100000   -281299.45         5000         4533   0.65740741    0.6712963 
    6000       100000   -280871.75         6000         5424   0.64814815   0.67592593 
    7000       100000   -281007.04         7000         6341   0.65740741    0.6712963 
    8000       100000   -281101.51         8000         7246   0.65740741    0.6712963 
    9000       100000   -281562.39         9000         8149   0.69907407   0.65046296 
   10000       100000   -281517.04        10000         9056   0.67592593   0.66203704 
   11000       100000   -280121.88        11000         9960   0.62962963   0.68518519 
   12000       100000   -281616.26        12000        10880   0.69907407   0.65046296 
   13000       100000   -281264.04        13000        11794   0.64814815   0.67592593 
   14000       100000    -281151.1        14000        12707    0.7037037   0.64814815 
   15000       100000    -280905.1        15000        13639    0.7037037   0.64814815 
   16000       100000   -281289.46        16000        14542   0.68055556   0.65972222 
   17000       100000   -281192.82        17000        15438    0.6712963   0.66435185 
   18000       100000   -281351.09        18000        16346   0.68055556   0.65972222 
   19000       100000   -281137.32        19000        17241   0.61574074   0.69212963 
   20000       100000   -281050.57        20000        18141   0.67592593   0.66203704 
   21000       100000   -281601.44        21000        19057   0.70833333   0.64583333 
   22000       100000   -281528.36        22000        19960    0.6712963   0.66435185 
   23000       100000   -281174.83        23000        20871   0.66666667   0.66666667 
   24000       100000   -281345.32        24000        21799    0.6712963   0.66435185 
   25000       100000   -281641.03        25000        22711   0.70833333   0.64583333 
   26000       100000    -281354.6        26000        23615   0.69444444   0.65277778 
   27000       100000   -281663.13        27000        24525    0.7037037   0.64814815 
   28000       100000   -281300.58        28000        25422   0.63888889   0.68055556 
   29000       100000   -281038.24        29000        26331   0.68981481   0.65509259 
   30000       100000   -281065.54        30000        27255   0.62037037   0.68981481 
   31000       100000   -281070.56        31000        28153   0.67592593   0.66203704 
   32000       100000      -281576        32000        29056   0.71296296   0.64351852 
   33000       100000   -281435.39        33000        29968   0.65740741    0.6712963 
   34000       100000    -281401.6        34000        30863   0.68055556   0.65972222 
   35000       100000   -281598.82        35000        31789   0.71759259    0.6412037 
   36000       100000   -281473.19        36000        32682   0.69907407   0.65046296 
   37000       100000   -281506.78        37000        33595   0.66203704   0.66898148 
   38000       100000    -281125.1        38000        34490   0.62962963   0.68518519 
   39000       100000   -281540.61        39000        35393   0.71296296   0.64351852 
   40000       100000    -280899.1        40000        36308   0.68981481   0.65509259 
   41000       100000   -281318.49        41000        37217   0.69907407   0.65046296 
   42000       100000   -281489.46        42000        38136   0.66203704   0.66898148 
   43000       100000   -281087.54        43000        39050   0.65277778   0.67361111 
   44000       100000    -281234.1        44000        39960   0.68518519   0.65740741 
   45000       100000   -281565.07        45000        40869   0.65740741    0.6712963 
   46000       100000   -281041.76        46000        41757   0.68981481   0.65509259 
   47000       100000   -281214.51        47000        42684   0.63425926   0.68287037 
   48000       100000   -281327.35        48000        43595   0.65277778   0.67361111 
   49000       100000    -281078.1        49000        44505   0.67592593   0.66203704 
   50000       100000   -281112.09        50000        45416   0.66666667   0.66666667 
   51000       100000   -281211.04        51000        46317   0.65740741    0.6712963 
   52000       100000   -281500.16        52000        47215   0.69444444   0.65277778 
   53000       100000   -281443.86        53000        48127   0.67592593   0.66203704 
   54000       100000   -281414.91        54000        49046   0.68055556   0.65972222 
   55000       100000   -281259.79        55000        49964   0.68981481   0.65509259 
   56000       100000    -281530.7        56000        50861   0.68055556   0.65972222 
   57000       100000   -281116.18        57000        51775   0.71759259    0.6412037 
   58000       100000   -281369.01        58000        52697   0.71296296   0.64351852 
   59000       100000   -280361.04        59000        53593   0.68055556   0.65972222 
   60000       100000   -280744.77        60000        54498   0.63888889   0.68055556 
   61000       100000   -281046.23        61000        55401   0.66203704   0.66898148 
   62000       100000    -281050.3        62000        56317   0.67592593   0.66203704 
   63000       100000   -281436.46        63000        57229   0.71759259    0.6412037 
   64000       100000   -281431.88        64000        58148   0.68981481   0.65509259 
   65000       100000   -281096.35        65000        59054   0.64814815   0.67592593 
   66000       100000   -280960.23        66000        59958   0.65277778   0.67361111 
   67000       100000   -281184.89        67000        60883   0.67592593   0.66203704 
   68000       100000      -281157        68000        61794    0.6712963   0.66435185 
   69000       100000   -281641.35        69000        62703   0.66666667   0.66666667 
   70000       100000    -281234.1        70000        63596   0.68981481   0.65509259 
   71000       100000    -281538.7        71000        64504   0.62962963   0.68518519 
   72000       100000   -281388.98        72000        65433   0.64814815   0.67592593 
   73000       100000   -281340.88        73000        66333   0.67592593   0.66203704 
   74000       100000   -281625.94        74000        67263   0.66666667   0.66666667 
   75000       100000   -281298.36        75000        68178    0.7037037   0.64814815 
   76000       100000   -281390.14        76000        69087   0.68981481   0.65509259 
   77000       100000   -281101.37        77000        70008   0.62962963   0.68518519 
   78000       100000   -281312.94        78000        70928   0.68981481   0.65509259 
   79000       100000   -280900.22        79000        71832   0.65740741    0.6712963 
   80000       100000   -281629.77        80000        72733   0.66203704   0.66898148 
   81000       100000   -281661.42        81000        73619   0.71759259    0.6412037 
   82000       100000   -281380.06        82000        74531   0.68055556   0.65972222 
   83000       100000   -281541.42        83000        75442   0.65740741    0.6712963 
   84000       100000   -281605.79        84000        76343   0.68518519   0.65740741 
   85000       100000   -281366.76        85000        77267   0.64814815   0.67592593 
   86000       100000   -281344.58        86000        78180   0.72685185   0.63657407 
   87000       100000   -281590.29        87000        79074   0.70833333   0.64583333 
   88000       100000   -281404.99        88000        79988   0.66203704   0.66898148 
   89000       100000   -281259.34        89000        80895   0.67592593   0.66203704 
   90000       100000   -281034.32        90000        81795    0.6712963   0.66435185 
   91000       100000   -281508.14        91000        82702   0.67592593   0.66203704 
   92000       100000   -280788.69        92000        83615   0.66666667   0.66666667 
   93000       100000   -280991.18        93000        84516   0.66666667   0.66666667 
   94000       100000   -281126.42        94000        85424   0.63888889   0.68055556 
   95000       100000    -281319.3        95000        86333   0.67592593   0.66203704 
   96000       100000   -281426.71        96000        87247   0.66666667   0.66666667 
   97000       100000   -281178.82        97000        88140   0.65740741    0.6712963 
   98000       100000   -281730.54        98000        89037   0.66203704   0.66898148 
   99000       100000   -280714.85        99000        89932   0.65277778   0.67361111 
  100000       100000   -281212.42       100000        90839   0.62962963   0.68518519 
  101000       100000    -281452.8       101000        91745   0.69444444   0.65277778 
  102000       100000   -281069.14       102000        92646    0.7037037   0.64814815 
  103000       100000    -281421.9       103000        93551   0.65740741    0.6712963 
  104000       100000   -281416.06       104000        94461   0.72685185   0.63657407 
  105000       100000   -281160.12       105000        95357   0.68981481   0.65509259 
  106000       100000   -280659.38       106000        96264   0.68055556   0.65972222 
  107000       100000   -281415.65       107000        97163   0.70833333   0.64583333 
  108000       100000   -281652.92       108000        98059   0.69444444   0.65277778 
  109000       100000   -281446.37       109000        98968   0.62962963   0.68518519 
  110000       100000   -281037.48       110000        99871   0.64814815   0.67592593 
  111000       100000   -281316.05       111000       100778   0.65740741    0.6712963 
  112000       100000    -281100.1       112000       101673   0.66666667   0.66666667 
  113000       100000   -281429.56       113000       102586    0.7037037   0.64814815 
  114000       100000   -281501.35       114000       103496   0.72222222   0.63888889 
  115000       100000   -281768.65       115000       104388   0.76851852   0.61574074 
  116000       100000   -281301.29       116000       105309   0.69444444   0.65277778 
  117000       100000   -281529.27       117000       106205   0.71296296   0.64351852 
  118000       100000    -281061.8       118000       107119   0.66203704   0.66898148 
  119000       100000   -280777.91       119000       108009   0.65740741    0.6712963 
  120000       100000   -281332.29       120000       108902   0.64351852   0.67824074 
  121000       100000   -281289.01       121000       109807   0.69907407   0.65046296 
  122000       100000   -281170.49       122000       110707   0.64814815   0.67592593 
  123000       100000   -281746.08       123000       111610   0.71296296   0.64351852 
  124000       100000   -281557.97       124000       112507    0.7037037   0.64814815 
  125000       100000    -281347.7       125000       113418   0.66203704   0.66898148 
  126000       100000   -281386.37       126000       114325   0.66203704   0.66898148 
  127000       100000   -281536.08       127000       115234   0.66203704   0.66898148 
  128000       100000    -281610.4       128000       116138   0.65277778   0.67361111 
  129000       100000   -281450.75       129000       117034   0.67592593   0.66203704 
  130000       100000   -281178.66       130000       117947   0.65277778   0.67361111 
  131000       100000   -281112.17       131000       118857   0.62962963   0.68518519 
  132000       100000   -281196.61       132000       119765        0.625       0.6875 
  133000       100000   -280987.52       133000       120658   0.67592593   0.66203704 
  134000       100000   -281118.92       134000       121549   0.64351852   0.67824074 
  135000       100000   -281010.32       135000       122452   0.68518519   0.65740741 
  136000       100000   -281356.23       136000       123350   0.67592593   0.66203704 
  137000       100000   -281517.91       137000       124249   0.74074074   0.62962963 
  138000       100000    -281188.7       138000       125152   0.66666667   0.66666667 
  139000       100000   -281409.19       139000       126065   0.69444444   0.65277778 
  140000       100000   -281588.71       140000       126976   0.71759259    0.6412037 
  141000       100000   -281393.49       141000       127890   0.67592593   0.66203704 
  142000       100000   -281409.37       142000       128800   0.66666667   0.66666667 
  143000       100000   -281549.66       143000       129713   0.69444444   0.65277778 
  144000       100000   -280811.23       144000       130621   0.63888889   0.68055556 
  145000       100000   -281487.76       145000       131527   0.69444444   0.65277778 
  146000       100000   -281280.38       146000       132438   0.64814815   0.67592593 
  147000       100000   -281393.08       147000       133343   0.71759259    0.6412037 
  148000       100000   -281198.56       148000       134245   0.66666667   0.66666667 
  149000       100000   -281530.78       149000       135164   0.69444444   0.65277778 
  150000       100000   -281342.26       150000       136083   0.63888889   0.68055556 
  151000       100000   -281799.66       151000       136983   0.67592593   0.66203704 
  152000       100000   -281508.19       152000       137894   0.68981481   0.65509259 
  153000       100000   -281276.97       153000       138805   0.72222222   0.63888889 
  154000       100000   -281187.57       154000       139721   0.65740741    0.6712963 
  155000       100000   -281586.89       155000       140626   0.69444444   0.65277778 
  156000       100000   -281469.85       156000       141530   0.71296296   0.64351852 
  157000       100000   -281420.92       157000       142447   0.69444444   0.65277778 
  158000       100000   -281452.36       158000       143354   0.67592593   0.66203704 
  159000       100000   -281230.89       159000       144277   0.64814815   0.67592593 
  160000       100000   -281074.36       160000       145187   0.66666667   0.66666667 
  161000       100000   -281539.32       161000       146091   0.68981481   0.65509259 
  162000       100000   -281168.32       162000       147000   0.62037037   0.68981481 
  163000       100000   -281085.21       163000       147905   0.62037037   0.68981481 
  164000       100000   -281465.96       164000       148825   0.66666667   0.66666667 
  165000       100000   -281232.32       165000       149735   0.67592593   0.66203704 
  166000       100000   -281428.32       166000       150641   0.69444444   0.65277778 
  167000       100000   -281140.81       167000       151541   0.61574074   0.69212963 
  168000       100000   -280951.96       168000       152445   0.72222222   0.63888889 
  169000       100000   -281708.77       169000       153363   0.69444444   0.65277778 
  170000       100000    -280980.6       170000       154282   0.71759259    0.6412037 
  171000       100000   -281508.17       171000       155192   0.71759259    0.6412037 
  172000       100000   -281349.24       172000       156093   0.68055556   0.65972222 
  173000       100000   -280970.17       173000       156988   0.64814815   0.67592593 
  174000       100000   -281329.25       174000       157898    0.6712963   0.66435185 
  175000       100000   -281184.49       175000       158801   0.64351852   0.67824074 
  176000       100000   -281070.26       176000       159703   0.68055556   0.65972222 
  177000       100000   -281464.27       177000       160617   0.71296296   0.64351852 
  178000       100000    -281341.7       178000       161533   0.68981481   0.65509259 
  179000       100000    -281140.6       179000       162425   0.68981481   0.65509259 
  180000       100000    -280915.8       180000       163318    0.6712963   0.66435185 
  181000       100000   -281342.79       181000       164221   0.69444444   0.65277778 
  182000       100000   -281082.51       182000       165131   0.68981481   0.65509259 
  183000       100000   -280927.64       183000       166028   0.67592593   0.66203704 
  184000       100000   -281585.02       184000       166923   0.71759259    0.6412037 
  185000       100000   -281140.96       185000       167822   0.68518519   0.65740741 
  186000       100000   -281339.55       186000       168737   0.66666667   0.66666667 
  187000       100000    -281301.7       187000       169636    0.6712963   0.66435185 
  188000       100000   -281594.16       188000       170549   0.67592593   0.66203704 
  189000       100000   -281510.82       189000       171465   0.69444444   0.65277778 
  190000       100000   -281576.38       190000       172381   0.73148148   0.63425926 
  191000       100000   -281404.68       191000       173273   0.65277778   0.67361111 
  192000       100000   -281505.64       192000       174169   0.69907407   0.65046296 
  193000       100000    -281404.6       193000       175078   0.68055556   0.65972222 
  194000       100000   -281298.51       194000       175982   0.66203704   0.66898148 
  195000       100000   -281515.09       195000       176874   0.66666667   0.66666667 
  196000       100000   -281404.18       196000       177768   0.64351852   0.67824074 
  197000       100000   -281318.75       197000       178685   0.66203704   0.66898148 
  198000       100000   -281340.55       198000       179599   0.64351852   0.67824074 
  199000       100000   -280905.04       199000       180492   0.74537037   0.62731481 
  200000       100000   -281522.85       200000       181396   0.65740741    0.6712963 
  201000       100000   -281081.54       201000       182313   0.72685185   0.63657407 
  202000       100000   -281306.06       202000       183207   0.66203704   0.66898148 
  203000       100000   -281320.07       203000       184110   0.66666667   0.66666667 
  204000       100000   -281466.25       204000       185015   0.65740741    0.6712963 
  205000       100000   -281308.25       205000       185929   0.68981481   0.65509259 
  206000       100000   -281156.19       206000       186842   0.66666667   0.66666667 
  207000       100000   -281325.51       207000       187746   0.64351852   0.67824074 
  208000       100000   -281485.26       208000       188652   0.68055556   0.65972222 
  209000       100000   -280853.12       209000       189571    0.6712963   0.66435185 
  210000       100000   -280986.65       210000       190474   0.66203704   0.66898148 
  211000       100000   -281148.73       211000       191383   0.66666667   0.66666667 
  212000       100000   -280632.11       212000       192291   0.66666667   0.66666667 
  213000       100000   -281260.61       213000       193204   0.69907407   0.65046296 
  214000       100000   -281453.94       214000       194114   0.71296296   0.64351852 
  215000       100000   -280928.79       215000       195010   0.68518519   0.65740741 
  216000       100000   -281472.23       216000       195919   0.64814815   0.67592593 
  217000       100000   -280735.09       217000       196823   0.68518519   0.65740741 
  218000       100000   -281034.29       218000       197746   0.67592593   0.66203704 
  219000       100000   -280797.45       219000       198653   0.67592593   0.66203704 
  220000       100000   -281295.55       220000       199556   0.67592593   0.66203704 
  221000       100000   -281188.41       221000       200467   0.62037037   0.68981481 
  222000       100000   -281316.21       222000       201390    0.7037037   0.64814815 
  223000       100000   -281272.04       223000       202299   0.68055556   0.65972222 
  224000       100000   -280912.37       224000       203203   0.68981481   0.65509259 
  225000       100000   -281483.18       225000       204122   0.71296296   0.64351852 
  226000       100000   -281094.85       226000       205039   0.66203704   0.66898148 
  227000       100000   -281392.73       227000       205932   0.71759259    0.6412037 
  228000       100000   -281219.22       228000       206846   0.70833333   0.64583333 
  229000       100000   -281189.03       229000       207758   0.68055556   0.65972222 
  230000       100000   -281175.78       230000       208662   0.66203704   0.66898148 
  231000       100000   -281946.12       231000       209564   0.73611111   0.63194444 
  232000       100000   -280835.64       232000       210490   0.65277778   0.67361111 
  233000       100000   -281658.96       233000       211407   0.71759259    0.6412037 
  234000       100000   -281602.21       234000       212321   0.72685185   0.63657407 
  235000       100000   -281356.75       235000       213231   0.67592593   0.66203704 
  236000       100000   -281269.37       236000       214140   0.68518519   0.65740741 
  237000       100000   -281444.28       237000       215062   0.66666667   0.66666667 
  238000       100000   -280778.37       238000       215966   0.61111111   0.69444444 
  239000       100000   -281671.08       239000       216882   0.72222222   0.63888889 
  240000       100000   -281036.27       240000       217786   0.68518519   0.65740741 
  241000       100000   -281049.32       241000       218703   0.65740741    0.6712963 
  242000       100000   -281121.53       242000       219618   0.68518519   0.65740741 
  243000       100000   -281595.18       243000       220519   0.66203704   0.66898148 
  244000       100000   -281528.82       244000       221433   0.69907407   0.65046296 
  245000       100000   -281583.82       245000       222341   0.68518519   0.65740741 
  246000       100000   -280951.76       246000       223252   0.66203704   0.66898148 
  247000       100000   -281123.52       247000       224163   0.66666667   0.66666667 
  248000       100000   -281293.31       248000       225066   0.68055556   0.65972222 
  249000       100000   -281213.04       249000       225975   0.65277778   0.67361111 
  250000       100000   -281066.74       250000       226878   0.67592593   0.66203704 
  251000       100000   -281483.66       251000       227805   0.67592593   0.66203704 
  252000       100000   -281398.59       252000       228707    0.7037037   0.64814815 
  253000       100000   -281536.79       253000       229622   0.69444444   0.65277778 
  254000       100000   -281340.49       254000       230526   0.68518519   0.65740741 
  255000       100000   -281614.07       255000       231411   0.68518519   0.65740741 
  256000       100000   -281476.04       256000       232313   0.68981481   0.65509259 
  257000       100000   -281573.16       257000       233209    0.7037037   0.64814815 
  258000       100000   -281398.15       258000       234116   0.63425926   0.68287037 
  259000       100000   -280914.45       259000       235032    0.6712963   0.66435185 
  260000       100000   -280878.21       260000       235948   0.63888889   0.68055556 
  261000       100000   -281174.07       261000       236857   0.68055556   0.65972222 
  262000       100000   -281347.83       262000       237761   0.65740741    0.6712963 
  263000       100000   -281099.14       263000       238667   0.70833333   0.64583333 
  264000       100000   -281303.47       264000       239575   0.67592593   0.66203704 
  265000       100000    -281052.8       265000       240473   0.69907407   0.65046296 
  266000       100000   -281411.96       266000       241384   0.68055556   0.65972222 
  267000       100000   -281223.93       267000       242290   0.65740741    0.6712963 
  268000       100000   -281464.75       268000       243193   0.67592593   0.66203704 
  269000       100000   -281394.57       269000       244089   0.68518519   0.65740741 
  270000       100000    -281155.2       270000       244987   0.68518519   0.65740741 
  271000       100000   -281344.82       271000       245895    0.6712963   0.66435185 
  272000       100000   -281126.92       272000       246799   0.68518519   0.65740741 
  273000       100000   -281032.97       273000       247699   0.66203704   0.66898148 
  274000       100000   -281254.24       274000       248600        0.625       0.6875 
  275000       100000   -281284.16       275000       249515   0.68055556   0.65972222 
  276000       100000   -281448.58       276000       250419   0.60648148   0.69675926 
  277000       100000   -281463.56       277000       251315   0.65740741    0.6712963 
  278000       100000   -281399.46       278000       252216        0.625       0.6875 
  279000       100000   -281169.57       279000       253121   0.63888889   0.68055556 
  280000       100000   -281152.74       280000       254024   0.62962963   0.68518519 
  281000       100000   -281371.65       281000       254918    0.6712963   0.66435185 
  282000       100000   -280871.84       282000       255811   0.63888889   0.68055556 
  283000       100000   -281442.82       283000       256722   0.68518519   0.65740741 
  284000       100000   -281174.78       284000       257636   0.64814815   0.67592593 
  285000       100000   -281177.59       285000       258536   0.68055556   0.65972222 
  286000       100000   -281327.51       286000       259439   0.65277778   0.67361111 
  287000       100000   -281427.71       287000       260354   0.68518519   0.65740741 
  288000       100000   -281337.97       288000       261249   0.66666667   0.66666667 
  289000       100000   -281771.74       289000       262158   0.71759259    0.6412037 
  290000       100000    -281487.3       290000       263070   0.69444444   0.65277778 
  291000       100000   -281400.74       291000       263973   0.70833333   0.64583333 
  292000       100000   -280910.72       292000       264881   0.69444444   0.65277778 
  293000       100000   -281221.84       293000       265770   0.65740741    0.6712963 
  294000       100000   -281572.21       294000       266684   0.68981481   0.65509259 
  295000       100000   -280807.52       295000       267591   0.61574074   0.69212963 
  296000       100000   -280802.62       296000       268509   0.65277778   0.67361111 
  297000       100000   -281338.05       297000       269403   0.65277778   0.67361111 
  298000       100000    -281524.3       298000       270307   0.69907407   0.65046296 
  299000       100000   -281079.84       299000       271206   0.66203704   0.66898148 
  300000       100000   -281094.05       300000       272108   0.68518519   0.65740741 
  301000       100000   -280819.52       301000       273023   0.68518519   0.65740741 
  302000       100000   -281550.05       302000       273933   0.62962963   0.68518519 
  303000       100000   -281669.71       303000       274836   0.76851852   0.61574074 
  304000       100000   -281454.46       304000       275750   0.67592593   0.66203704 
  305000       100000   -280711.41       305000       276662        0.625       0.6875 
  306000       100000   -281254.23       306000       277568   0.71759259    0.6412037 
  307000       100000   -281222.88       307000       278482   0.65277778   0.67361111 
  308000       100000   -280712.89       308000       279390   0.68981481   0.65509259 
  309000       100000   -280803.75       309000       280298   0.68518519   0.65740741 
  310000       100000   -280716.46       310000       281202   0.68981481   0.65509259 
  311000       100000   -281268.87       311000       282106   0.68055556   0.65972222 
  312000       100000   -281233.82       312000       283011   0.70833333   0.64583333 
  313000       100000   -281235.94       313000       283920   0.65740741    0.6712963 
  314000       100000   -280905.46       314000       284820   0.66666667   0.66666667 
  315000       100000   -281250.69       315000       285724   0.69907407   0.65046296 
  316000       100000    -281279.5       316000       286631   0.63425926   0.68287037 
  317000       100000   -281228.58       317000       287527   0.69444444   0.65277778 
  318000       100000   -281385.63       318000       288431   0.70833333   0.64583333 
  319000       100000   -281290.49       319000       289351   0.67592593   0.66203704 
  320000       100000   -281316.74       320000       290251   0.69444444   0.65277778 
  321000       100000   -281735.19       321000       291146    0.6712963   0.66435185 
  322000       100000   -281199.03       322000       292054   0.66666667   0.66666667 
  323000       100000    -280954.3       323000       292942   0.70833333   0.64583333 
  324000       100000   -281388.59       324000       293845   0.72222222   0.63888889 
  325000       100000    -281264.4       325000       294746   0.70833333   0.64583333 
  326000       100000   -281192.07       326000       295639    0.7037037   0.64814815 
  327000       100000   -281633.23       327000       296557   0.66203704   0.66898148 
  328000       100000   -281186.03       328000       297453   0.65277778   0.67361111 
  329000       100000   -281726.45       329000       298346   0.69444444   0.65277778 
  330000       100000   -281253.88       330000       299245   0.71296296   0.64351852 
  331000       100000   -280973.05       331000       300137   0.64351852   0.67824074 
  332000       100000   -281431.92       332000       301045   0.68518519   0.65740741 
  333000       100000   -281431.24       333000       301967   0.68055556   0.65972222 
  334000       100000   -281289.71       334000       302874   0.63888889   0.68055556 
  335000       100000   -281432.46       335000       303782   0.68055556   0.65972222 
  336000       100000   -281415.14       336000       304669   0.67592593   0.66203704 
  337000       100000   -280956.49       337000       305560   0.62962963   0.68518519 
  338000       100000   -281247.52       338000       306464   0.68518519   0.65740741 
  339000       100000   -281258.49       339000       307372   0.68518519   0.65740741 
  340000       100000   -280975.09       340000       308265   0.68518519   0.65740741 
  341000       100000   -281402.37       341000       309155   0.65740741    0.6712963 
  342000       100000   -281193.34       342000       310073   0.68518519   0.65740741 
  343000       100000      -281066       343000       310990   0.66203704   0.66898148 
  344000       100000   -281818.08       344000       311892   0.69444444   0.65277778 
  345000       100000   -281008.15       345000       312781   0.69444444   0.65277778 
  346000       100000   -281173.55       346000       313680   0.65277778   0.67361111 
  347000       100000   -281285.53       347000       314575   0.66203704   0.66898148 
  348000       100000   -281816.49       348000       315493   0.68518519   0.65740741 
  349000       100000   -281285.14       349000       316398   0.68981481   0.65509259 
  350000       100000   -281131.04       350000       317310        0.625       0.6875 
  351000       100000   -281545.83       351000       318211   0.69907407   0.65046296 
  352000       100000   -281578.46       352000       319116   0.66203704   0.66898148 
  353000       100000   -281369.05       353000       320023   0.66666667   0.66666667 
  354000       100000   -281344.66       354000       320930    0.6712963   0.66435185 
  355000       100000   -281109.49       355000       321835   0.68981481   0.65509259 
  356000       100000   -281392.15       356000       322739   0.63425926   0.68287037 
  357000       100000   -281440.91       357000       323626        0.625       0.6875 
  358000       100000   -281244.36       358000       324542    0.6712963   0.66435185 
  359000       100000   -281033.62       359000       325446   0.65740741    0.6712963 
  360000       100000   -281230.91       360000       326365    0.6712963   0.66435185 
  361000       100000   -281563.96       361000       327266   0.67592593   0.66203704 
  362000       100000   -281488.74       362000       328174   0.68981481   0.65509259 
  363000       100000   -281332.41       363000       329087   0.67592593   0.66203704 
  364000       100000   -281207.45       364000       329992   0.68518519   0.65740741 
  365000       100000   -281463.73       365000       330897   0.69444444   0.65277778 
  366000       100000   -281168.41       366000       331789   0.64814815   0.67592593 
  367000       100000   -281466.79       367000       332697   0.69444444   0.65277778 
  368000       100000   -281134.28       368000       333610   0.63888889   0.68055556 
  369000       100000   -281267.69       369000       334517   0.65740741    0.6712963 
  370000       100000   -281014.87       370000       335422   0.62962963   0.68518519 
  371000       100000   -281500.63       371000       336325   0.68055556   0.65972222 
  372000       100000   -280941.47       372000       337218   0.65740741    0.6712963 
  373000       100000    -281179.5       373000       338124        0.625       0.6875 
  374000       100000   -280795.31       374000       339045   0.63425926   0.68287037 
  375000       100000   -281222.99       375000       339957   0.65277778   0.67361111 
  376000       100000   -280910.85       376000       340850   0.68055556   0.65972222 
  377000       100000   -281388.87       377000       341747   0.66203704   0.66898148 
  378000       100000   -281416.46       378000       342656   0.67592593   0.66203704 
  379000       100000   -281540.02       379000       343556         0.75        0.625 
  380000       100000   -281377.49       380000       344462   0.71296296   0.64351852 
  381000       100000   -281102.45       381000       345374   0.68055556   0.65972222 
  382000       100000   -281389.34       382000       346278   0.68055556   0.65972222 
  383000       100000    -281375.6       383000       347197    0.6712963   0.66435185 
  384000       100000   -281126.83       384000       348116   0.64351852   0.67824074 
  385000       100000   -281522.71       385000       349024    0.7037037   0.64814815 
  386000       100000   -281247.95       386000       349928   0.65740741    0.6712963 
  387000       100000   -281164.71       387000       350864    0.7037037   0.64814815 
  388000       100000   -281485.96       388000       351778   0.72222222   0.63888889 
  389000       100000   -281203.15       389000       352677   0.63425926   0.68287037 
  390000       100000   -281127.36       390000       353588   0.61574074   0.69212963 
  391000       100000   -281211.64       391000       354493   0.71296296   0.64351852 
  392000       100000   -281411.55       392000       355404   0.64814815   0.67592593 
  393000       100000   -281319.97       393000       356297   0.68981481   0.65509259 
  394000       100000   -281336.26       394000       357207   0.67592593   0.66203704 
  395000       100000   -281397.85       395000       358114   0.65740741    0.6712963 
  396000       100000   -281434.45       396000       359039   0.65277778   0.67361111 
  397000       100000   -281353.18       397000       359948    0.6712963   0.66435185 
  398000       100000    -281317.3       398000       360853   0.64351852   0.67824074 
  399000       100000   -281335.01       399000       361778    0.7037037   0.64814815 
  400000       100000   -280849.03       400000       362676   0.63888889   0.68055556 
  401000       100000   -281329.05       401000       363582   0.64814815   0.67592593 
  402000       100000   -280786.61       402000       364473   0.67592593   0.66203704 
  403000       100000   -281451.97       403000       365379    0.6712963   0.66435185 
  404000       100000   -281131.96       404000       366270   0.67592593   0.66203704 
  405000       100000    -281360.9       405000       367173   0.65277778   0.67361111 
  406000       100000   -281457.18       406000       368076   0.68981481   0.65509259 
  407000       100000   -281596.54       407000       368983   0.65277778   0.67361111 
  408000       100000   -281360.12       408000       369896   0.69907407   0.65046296 
  409000       100000   -281803.91       409000       370793   0.68981481   0.65509259 
  410000       100000   -281242.34       410000       371710   0.59722222   0.70138889 
  411000       100000   -281512.43       411000       372612   0.65277778   0.67361111 
  412000       100000   -281123.45       412000       373520   0.67592593   0.66203704 
  413000       100000   -281131.92       413000       374418   0.69444444   0.65277778 
  414000       100000   -280916.93       414000       375329   0.66666667   0.66666667 
  415000       100000   -281374.09       415000       376232   0.69444444   0.65277778 
  416000       100000    -280877.4       416000       377138   0.64814815   0.67592593 
  417000       100000   -280944.19       417000       378053   0.61574074   0.69212963 
  418000       100000   -281667.46       418000       378947   0.74537037   0.62731481 
  419000       100000   -281496.69       419000       379856   0.64351852   0.67824074 
  419904       100000    -280957.8       419904       380683   0.66203704   0.66898148 
Loop time of 3732.71 on 40 procs for 419904 steps with 1512 atoms

Performance: 9.719 ns/day, 2.469 hours/ns, 112.493 timesteps/s
99.9% CPU use with 40 MPI tasks x no OpenMP threads

MPI task timing breakdown:
Section |  min time  |  avg time  |  max time  |%varavg| %total
---------------------------------------------------------------
Pair    | 96.676     | 147.91     | 199.31     | 234.9 |  3.96
Bond    | 0.026887   | 0.034242   | 0.061021   |   3.3 |  0.00
Kspace  | 390.46     | 487.44     | 592.12     | 265.2 | 13.06
Neigh   | 150.32     | 207.03     | 258.71     | 217.3 |  5.55
Comm    | 242.22     | 247.81     | 252.95     |  18.7 |  6.64
Output  | 0.18825    | 0.19059    | 0.20128    |   0.5 |  0.01
Modify  | 2636.2     | 2638.5     | 2640.1     |   2.3 | 70.68
Other   |            | 3.851      |            |       |  0.10

Nlocal:        37.8000 ave          46 max          31 min
Histogram: 10 4 10 0 0 0 0 0 2 14
Nghost:        4111.80 ave        4225 max        3982 min
Histogram: 16 0 0 0 0 0 0 0 16 8
Neighs:        20320.2 ave       27074 max       13387 min
Histogram: 6 2 0 6 5 6 6 1 3 5
FullNghs:      40640.4 ave       49427 max       33332 min
Histogram: 10 4 10 0 0 0 0 0 2 14

Total # of neighbors = 1625616
Ave neighs/atom = 1075.1429
Ave special neighs/atom = 0.0000000
Neighbor list builds = 839808
Dangerous builds = 0

  variable cnum equal ${cnum}-1
  variable cnum equal 93-1

  unfix swp
  thermo_style custom step temp pe

next temp
jump SELF temp_loop

  variable ftemp equal v_temp
  # Electrostatic relaxation-long
  fix  swp fe atom/swap 1 1 ${rand} ${temp} ke no types 1 2
  fix  swp fe atom/swap 1 1 710414 ${temp} ke no types 1 2
  fix  swp fe atom/swap 1 1 710414 90000 ke no types 1 2
  thermo  1000
  thermo_style custom step v_ftemp pe f_swp[1] f_swp[2] v_rfet3 v_rfeo3
  run  ${nsteps}
  run  419904
PPPM initialization ...
  using 12-bit tables for long-range coulomb (../kspace.cpp:340)
  G vector (1/distance) = 0.2971196
  grid = 40 40 40
  stencil order = 5
  estimated absolute RMS force accuracy = 0.00037285856
  estimated relative force accuracy = 1.1228525e-06
  using double precision KISS FFT
  3d grid and FFT values/proc = 9367 1600
Per MPI rank memory allocation (min/avg/max) = 9.017 | 9.032 | 9.038 Mbytes
Step v_ftemp PotEng f_swp[1] f_swp[2] v_rfet3 v_rfeo3 
  419904        90000    -280957.8            0            0   0.66203704   0.66898148 
  420000        90000   -280904.95           96           89   0.65277778   0.67361111 
  421000        90000   -281563.34         1096          977   0.72222222   0.63888889 
  422000        90000   -281031.79         2096         1873   0.64814815   0.67592593 
  423000        90000    -281294.1         3096         2768   0.71296296   0.64351852 
  424000        90000   -281986.57         4096         3650   0.71759259    0.6412037 
  425000        90000   -281541.95         5096         4549   0.68518519   0.65740741 
  426000        90000   -281183.29         6096         5429   0.63425926   0.68287037 
  427000        90000   -281417.08         7096         6328   0.72222222   0.63888889 
  428000        90000   -281319.19         8096         7236   0.64351852   0.67824074 
  429000        90000   -281423.89         9096         8125   0.65740741    0.6712963 
  430000        90000    -281244.8        10096         9031   0.68518519   0.65740741 
  431000        90000   -281310.76        11096         9929   0.69444444   0.65277778 
  432000        90000   -281773.94        12096        10820   0.70833333   0.64583333 
  433000        90000   -280908.34        13096        11719        0.625       0.6875 
  434000        90000   -281282.22        14096        12620   0.64351852   0.67824074 
  435000        90000   -281364.85        15096        13540   0.65740741    0.6712963 
  436000        90000   -281439.39        16096        14420   0.61574074   0.69212963 
  437000        90000   -281658.23        17096        15306   0.70833333   0.64583333 
  438000        90000   -281381.66        18096        16208   0.68981481   0.65509259 
  439000        90000   -281328.92        19096        17099   0.66203704   0.66898148 
  440000        90000   -281457.24        20096        17992   0.72222222   0.63888889 
  441000        90000   -281500.76        21096        18899   0.66203704   0.66898148 
  442000        90000   -281282.01        22096        19805   0.70833333   0.64583333 
  443000        90000      -281427        23096        20706   0.69907407   0.65046296 
  444000        90000   -281202.77        24096        21622   0.65740741    0.6712963 
  445000        90000   -281207.92        25096        22522   0.66666667   0.66666667 
  446000        90000   -281549.81        26096        23425   0.69444444   0.65277778 
  447000        90000   -280740.13        27096        24320    0.6712963   0.66435185 
  448000        90000   -280932.51        28096        25207   0.68055556   0.65972222 
  449000        90000   -280994.64        29096        26110   0.66666667   0.66666667 
  450000        90000   -281618.34        30096        27008   0.67592593   0.66203704 
  451000        90000   -281346.47        31096        27908   0.67592593   0.66203704 
  452000        90000   -281491.26        32096        28792   0.70833333   0.64583333 
  453000        90000   -281729.14        33096        29693   0.68055556   0.65972222 
  454000        90000   -281659.09        34096        30586   0.71296296   0.64351852 
  455000        90000   -281430.34        35096        31475   0.69907407   0.65046296 
  456000        90000   -281503.65        36096        32368   0.68055556   0.65972222 
  457000        90000   -281505.51        37096        33274   0.66203704   0.66898148 
  458000        90000   -281012.37        38096        34160   0.65277778   0.67361111 
  459000        90000   -281390.48        39096        35053   0.68055556   0.65972222 
  460000        90000   -281447.29        40096        35953    0.6712963   0.66435185 
  461000        90000   -281174.78        41096        36846   0.64814815   0.67592593 
  462000        90000   -281324.35        42096        37766   0.63425926   0.68287037 
  463000        90000   -280855.85        43096        38661   0.65740741    0.6712963 
  464000        90000   -281177.93        44096        39547   0.69444444   0.65277778 
  465000        90000   -281624.66        45096        40442    0.6712963   0.66435185 
  466000        90000      -281344        46096        41336   0.67592593   0.66203704 
  467000        90000   -281539.92        47096        42214   0.73148148   0.63425926 
  468000        90000   -281384.74        48096        43105   0.69444444   0.65277778 
  469000        90000   -280714.48        49096        44024   0.63425926   0.68287037 
  470000        90000    -281513.4        50096        44919   0.73148148   0.63425926 
  471000        90000   -281561.08        51096        45821   0.68981481   0.65509259 
  472000        90000   -281383.03        52096        46708   0.66666667   0.66666667 
  473000        90000   -281320.34        53096        47617    0.6712963   0.66435185 
  474000        90000   -281753.42        54096        48524    0.7037037   0.64814815 
  475000        90000   -281330.48        55096        49431   0.72222222   0.63888889 
  476000        90000   -281385.84        56096        50333    0.7037037   0.64814815 
  477000        90000   -281428.05        57096        51237   0.63425926   0.68287037 
  478000        90000   -281122.47        58096        52126   0.65277778   0.67361111 
  479000        90000   -281255.19        59096        53016   0.64814815   0.67592593 
  480000        90000    -281147.1        60096        53910   0.68055556   0.65972222 
  481000        90000   -281575.39        61096        54810   0.67592593   0.66203704 
  482000        90000    -281332.8        62096        55721   0.66203704   0.66898148 
  483000        90000   -281045.23        63096        56619   0.62037037   0.68981481 
  484000        90000   -281469.59        64096        57517   0.66666667   0.66666667 
  485000        90000   -281504.32        65096        58425   0.68518519   0.65740741 
  486000        90000    -281454.9        66096        59318   0.67592593   0.66203704 
  487000        90000   -281549.74        67096        60197   0.69907407   0.65046296 
  488000        90000   -280994.29        68096        61092   0.65277778   0.67361111 
  489000        90000   -281204.96        69096        61990   0.71296296   0.64351852 
  490000        90000   -280942.74        70096        62871   0.67592593   0.66203704 
  491000        90000   -281280.92        71096        63760   0.66666667   0.66666667 
  492000        90000   -281849.17        72096        64653   0.72222222   0.63888889 
  493000        90000    -281490.1        73096        65542   0.70833333   0.64583333 
  494000        90000   -281044.68        74096        66457   0.65740741    0.6712963 
  495000        90000   -281849.86        75096        67358   0.68518519   0.65740741 
  496000        90000   -281300.39        76096        68244   0.68055556   0.65972222 
  497000        90000    -280799.4        77096        69144   0.64814815   0.67592593 
  498000        90000   -281285.51        78096        70044   0.65740741    0.6712963 
  499000        90000   -281319.92        79096        70935   0.68055556   0.65972222 
  500000        90000   -281570.34        80096        71828   0.69444444   0.65277778 
  501000        90000   -281136.75        81096        72726   0.65740741    0.6712963 
  502000        90000      -281562        82096        73635   0.68518519   0.65740741 
  503000        90000   -280322.56        83096        74536   0.66203704   0.66898148 
  504000        90000   -281549.21        84096        75410   0.69444444   0.65277778 
  505000        90000   -281275.99        85096        76308   0.69444444   0.65277778 
  506000        90000    -281512.8        86096        77211   0.68981481   0.65509259 
  507000        90000   -281422.73        87096        78122   0.63425926   0.68287037 
  508000        90000    -281599.6        88096        79011   0.69444444   0.65277778 
  509000        90000   -280915.31        89096        79913   0.67592593   0.66203704 
  510000        90000   -281645.84        90096        80806   0.68518519   0.65740741 
  511000        90000   -280762.44        91096        81696   0.69444444   0.65277778 
  512000        90000   -281600.15        92096        82602   0.68981481   0.65509259 
  513000        90000   -281455.83        93096        83479   0.68518519   0.65740741 
  514000        90000   -281675.05        94096        84385   0.67592593   0.66203704 
  515000        90000   -281527.51        95096        85290   0.72685185   0.63657407 
  516000        90000   -281389.26        96096        86180    0.6712963   0.66435185 
  517000        90000   -281362.97        97096        87076   0.68981481   0.65509259 
  518000        90000   -281447.71        98096        87955   0.66666667   0.66666667 
  519000        90000   -281173.87        99096        88849   0.69907407   0.65046296 
  520000        90000   -281431.47       100096        89745   0.68981481   0.65509259 
  521000        90000   -281101.32       101096        90654   0.64351852   0.67824074 
  522000        90000   -281483.67       102096        91539   0.65277778   0.67361111 
  523000        90000   -280873.08       103096        92432   0.68055556   0.65972222 
  524000        90000   -281443.01       104096        93346   0.69907407   0.65046296 
  525000        90000   -281313.06       105096        94249   0.68055556   0.65972222 
  526000        90000   -281092.16       106096        95156   0.63888889   0.68055556 
  527000        90000   -281573.67       107096        96065   0.68055556   0.65972222 
  528000        90000   -281488.38       108096        96963   0.69444444   0.65277778 
  529000        90000   -281428.92       109096        97844   0.64814815   0.67592593 
  530000        90000    -281487.9       110096        98721   0.65740741    0.6712963 
  531000        90000   -281441.68       111096        99624   0.67592593   0.66203704 
  532000        90000   -281256.52       112096       100535   0.71759259    0.6412037 
  533000        90000   -281487.17       113096       101442   0.64351852   0.67824074 
  534000        90000   -281771.91       114096       102336   0.70833333   0.64583333 
  535000        90000   -281289.49       115096       103237   0.68518519   0.65740741 
  536000        90000    -280991.8       116096       104124    0.6712963   0.66435185 
  537000        90000   -281451.12       117096       105020   0.69907407   0.65046296 
  538000        90000   -281128.51       118096       105914   0.66203704   0.66898148 
  539000        90000   -281214.27       119096       106799   0.68518519   0.65740741 
  540000        90000   -281853.54       120096       107701    0.6712963   0.66435185 
  541000        90000   -281746.88       121096       108589   0.69907407   0.65046296 
  542000        90000   -281283.32       122096       109488   0.64814815   0.67592593 
  543000        90000   -281272.05       123096       110386   0.66666667   0.66666667 
  544000        90000   -281305.46       124096       111298   0.68055556   0.65972222 
  545000        90000   -281516.61       125096       112206   0.70833333   0.64583333 
  546000        90000   -281413.99       126096       113099   0.68981481   0.65509259 
  547000        90000   -281152.99       127096       113987   0.73148148   0.63425926 
  548000        90000   -281432.74       128096       114883   0.72685185   0.63657407 
  549000        90000   -281180.11       129096       115782   0.68981481   0.65509259 
  550000        90000   -280923.76       130096       116678   0.72222222   0.63888889 
  551000        90000   -281397.47       131096       117579   0.68518519   0.65740741 
  552000        90000   -281522.75       132096       118466   0.69907407   0.65046296 
  553000        90000   -281489.74       133096       119369   0.67592593   0.66203704 
  554000        90000   -281602.02       134096       120263   0.68055556   0.65972222 
  555000        90000   -281382.49       135096       121166    0.7037037   0.64814815 
  556000        90000   -281469.27       136096       122075   0.68981481   0.65509259 
  557000        90000    -280880.4       137096       122979   0.61574074   0.69212963 
  558000        90000   -281151.59       138096       123889   0.65740741    0.6712963 
  559000        90000   -281363.08       139096       124780   0.69907407   0.65046296 
  560000        90000   -281381.76       140096       125680    0.7037037   0.64814815 
  561000        90000   -281036.11       141096       126568   0.68981481   0.65509259 
  562000        90000   -281134.01       142096       127455   0.71759259    0.6412037 
  563000        90000   -281684.12       143096       128355   0.70833333   0.64583333 
  564000        90000   -281124.49       144096       129258   0.68518519   0.65740741 
  565000        90000   -281210.23       145096       130163   0.68518519   0.65740741 
  566000        90000    -281329.8       146096       131058   0.65277778   0.67361111 
  567000        90000    -281335.4       147096       131970   0.65277778   0.67361111 
  568000        90000   -281112.95       148096       132859   0.64814815   0.67592593 
  569000        90000   -281601.49       149096       133753   0.68518519   0.65740741 
  570000        90000    -281528.3       150096       134648   0.66203704   0.66898148 
  571000        90000    -281693.2       151096       135543   0.75462963   0.62268519 
  572000        90000   -281522.19       152096       136437   0.71759259    0.6412037 
  573000        90000   -281127.05       153096       137344   0.66203704   0.66898148 
  574000        90000   -281242.19       154096       138257   0.66666667   0.66666667 
  575000        90000   -281211.82       155096       139161   0.65740741    0.6712963 
  576000        90000   -281267.25       156096       140057   0.68055556   0.65972222 
  577000        90000   -281212.62       157096       140940   0.68518519   0.65740741 
  578000        90000    -281701.9       158096       141838    0.7037037   0.64814815 
  579000        90000   -281529.74       159096       142724   0.66203704   0.66898148 
  580000        90000   -281377.77       160096       143607   0.69907407   0.65046296 
  581000        90000   -281367.21       161096       144509   0.73611111   0.63194444 
  582000        90000   -281516.02       162096       145404   0.72222222   0.63888889 
  583000        90000   -281569.98       163096       146300   0.68518519   0.65740741 
  584000        90000   -280996.79       164096       147183   0.66203704   0.66898148 
  585000        90000   -281178.55       165096       148072   0.67592593   0.66203704 
  586000        90000   -281364.16       166096       148962   0.68518519   0.65740741 
  587000        90000   -281149.67       167096       149843   0.64351852   0.67824074 
  588000        90000   -281235.43       168096       150739   0.65277778   0.67361111 
  589000        90000   -281426.76       169096       151625   0.66666667   0.66666667 
  590000        90000   -281234.53       170096       152521   0.62962963   0.68518519 
  591000        90000   -281344.83       171096       153416   0.68518519   0.65740741 
  592000        90000   -281384.16       172096       154312   0.65740741    0.6712963 
  593000        90000   -281259.84       173096       155229   0.68055556   0.65972222 
  594000        90000   -281565.88       174096       156128   0.69444444   0.65277778 
  595000        90000   -281440.23       175096       157018   0.65740741    0.6712963 
  596000        90000   -281223.98       176096       157922   0.66203704   0.66898148 
  597000        90000   -281581.34       177096       158829   0.66203704   0.66898148 
  598000        90000   -281408.68       178096       159732   0.65277778   0.67361111 
  599000        90000   -281519.77       179096       160621   0.71296296   0.64351852 
  600000        90000   -280748.07       180096       161511   0.67592593   0.66203704 
  601000        90000   -281169.86       181096       162430   0.72222222   0.63888889 
  602000        90000   -281336.88       182096       163327   0.66203704   0.66898148 
  603000        90000   -281494.05       183096       164223    0.7037037   0.64814815 
  604000        90000   -280910.04       184096       165132   0.70833333   0.64583333 
  605000        90000   -281180.63       185096       166012   0.68055556   0.65972222 
  606000        90000   -281742.49       186096       166925   0.68055556   0.65972222 
  607000        90000   -281394.16       187096       167825   0.67592593   0.66203704 
  608000        90000   -281482.66       188096       168725   0.67592593   0.66203704 
  609000        90000   -281462.49       189096       169634   0.68981481   0.65509259 
  610000        90000   -280888.53       190096       170532   0.64814815   0.67592593 
  611000        90000   -281162.95       191096       171440   0.66203704   0.66898148 
  612000        90000   -281397.09       192096       172310    0.7037037   0.64814815 
  613000        90000   -281152.47       193096       173182   0.65740741    0.6712963 
  614000        90000   -281235.74       194096       174062   0.70833333   0.64583333 
  615000        90000   -281174.86       195096       174967   0.66203704   0.66898148 
  616000        90000   -281414.68       196096       175868   0.64351852   0.67824074 
  617000        90000    -281575.2       197096       176774   0.68981481   0.65509259 
  618000        90000   -281421.54       198096       177683   0.68518519   0.65740741 
  619000        90000   -281205.36       199096       178582   0.66203704   0.66898148 
  620000        90000   -281723.95       200096       179478   0.66203704   0.66898148 
  621000        90000   -281494.09       201096       180371   0.69444444   0.65277778 
  622000        90000   -281206.81       202096       181254   0.71759259    0.6412037 
  623000        90000   -281385.52       203096       182146   0.67592593   0.66203704 
  624000        90000   -281495.53       204096       183043   0.71759259    0.6412037 
  625000        90000   -281550.87       205096       183930   0.66666667   0.66666667 
  626000        90000   -281247.99       206096       184810   0.68981481   0.65509259 
  627000        90000   -281126.83       207096       185710    0.6712963   0.66435185 
  628000        90000   -281532.45       208096       186607   0.71296296   0.64351852 
  629000        90000   -281252.95       209096       187495   0.66666667   0.66666667 
  630000        90000   -281503.41       210096       188387   0.64814815   0.67592593 
  631000        90000   -281524.66       211096       189285   0.68055556   0.65972222 
  632000        90000   -281357.32       212096       190182   0.66203704   0.66898148 
  633000        90000    -281489.3       213096       191091   0.69444444   0.65277778 
  634000        90000   -281436.24       214096       191988    0.6712963   0.66435185 
  635000        90000   -281543.86       215096       192877   0.66203704   0.66898148 
  636000        90000   -281107.94       216096       193774   0.68055556   0.65972222 
  637000        90000   -281440.41       217096       194668    0.7037037   0.64814815 
  638000        90000    -281527.1       218096       195581   0.67592593   0.66203704 
  639000        90000   -281322.95       219096       196485   0.66666667   0.66666667 
  640000        90000      -281274       220096       197396   0.68055556   0.65972222 
  641000        90000   -281341.98       221096       198294   0.66203704   0.66898148 
  642000        90000   -281491.54       222096       199210   0.65277778   0.67361111 
  643000        90000   -281663.32       223096       200114    0.6712963   0.66435185 
  644000        90000   -281375.97       224096       201021   0.66203704   0.66898148 
  645000        90000   -281268.67       225096       201920   0.68981481   0.65509259 
  646000        90000   -281725.38       226096       202810   0.66203704   0.66898148 
  647000        90000   -281551.12       227096       203714   0.69444444   0.65277778 
  648000        90000   -280857.38       228096       204618   0.69907407   0.65046296 
  649000        90000   -281383.88       229096       205531   0.70833333   0.64583333 
  650000        90000   -281157.78       230096       206422   0.67592593   0.66203704 
  651000        90000   -281460.54       231096       207328   0.70833333   0.64583333 
  652000        90000   -281119.93       232096       208223   0.63888889   0.68055556 
  653000        90000   -281417.58       233096       209108   0.68981481   0.65509259 
  654000        90000   -281482.98       234096       210011   0.69907407   0.65046296 
  655000        90000      -281459       235096       210900   0.73611111   0.63194444 
  656000        90000   -281183.07       236096       211790   0.60185185   0.69907407 
  657000        90000   -281544.21       237096       212676   0.67592593   0.66203704 
  658000        90000   -281412.78       238096       213565   0.69907407   0.65046296 
  659000        90000   -281504.46       239096       214468   0.71296296   0.64351852 
  660000        90000   -280749.64       240096       215369   0.61111111   0.69444444 
  661000        90000   -281428.65       241096       216265   0.72222222   0.63888889 
  662000        90000   -281340.82       242096       217183   0.69907407   0.65046296 
  663000        90000   -281520.57       243096       218093   0.69907407   0.65046296 
  664000        90000   -281502.76       244096       218993   0.66203704   0.66898148 
  665000        90000   -281520.49       245096       219879   0.65277778   0.67361111 
  666000        90000   -281244.12       246096       220765   0.66666667   0.66666667 
  667000        90000   -281402.46       247096       221676   0.64351852   0.67824074 
  668000        90000   -281260.15       248096       222563   0.68981481   0.65509259 
  669000        90000   -281383.41       249096       223475   0.71296296   0.64351852 
  670000        90000    -281294.9       250096       224377   0.73148148   0.63425926 
  671000        90000   -281133.83       251096       225284    0.6712963   0.66435185 
  672000        90000   -281540.58       252096       226200   0.69444444   0.65277778 
  673000        90000   -281684.95       253096       227107   0.72685185   0.63657407 
  674000        90000   -281008.21       254096       228002   0.66203704   0.66898148 
  675000        90000   -281715.99       255096       228889   0.68981481   0.65509259 
  676000        90000   -280855.59       256096       229790   0.68055556   0.65972222 
  677000        90000   -281900.93       257096       230675   0.69444444   0.65277778 
  678000        90000   -281415.35       258096       231578   0.67592593   0.66203704 
  679000        90000   -281218.87       259096       232468   0.72222222   0.63888889 
  680000        90000   -280519.03       260096       233377   0.65277778   0.67361111 
  681000        90000    -281670.2       261096       234273   0.71759259    0.6412037 
  682000        90000   -281340.08       262096       235177   0.68981481   0.65509259 
  683000        90000   -281189.61       263096       236071   0.68055556   0.65972222 
  684000        90000   -281353.99       264096       236969   0.67592593   0.66203704 
  685000        90000   -281392.65       265096       237874   0.63888889   0.68055556 
  686000        90000   -281375.67       266096       238758   0.66666667   0.66666667 
  687000        90000   -281185.49       267096       239633   0.66666667   0.66666667 
  688000        90000    -281292.1       268096       240520   0.69907407   0.65046296 
  689000        90000   -281259.76       269096       241431         0.75        0.625 
  690000        90000    -281427.8       270096       242322   0.69907407   0.65046296 
  691000        90000   -281208.32       271096       243223   0.68518519   0.65740741 
  692000        90000   -281511.12       272096       244121   0.69907407   0.65046296 
  693000        90000   -281126.54       273096       245023   0.67592593   0.66203704 
  694000        90000   -281171.74       274096       245908   0.68518519   0.65740741 
  695000        90000   -281331.56       275096       246809   0.65277778   0.67361111 
  696000        90000   -281375.49       276096       247693   0.68518519   0.65740741 
  697000        90000   -281221.82       277096       248597   0.65277778   0.67361111 
  698000        90000   -281262.56       278096       249515   0.67592593   0.66203704 
  699000        90000   -281036.53       279096       250426   0.60648148   0.69675926 
  700000        90000   -281483.21       280096       251319   0.64351852   0.67824074 
  701000        90000   -281423.39       281096       252214   0.63888889   0.68055556 
  702000        90000   -281230.05       282096       253113    0.6712963   0.66435185 
  703000        90000   -281587.15       283096       254007   0.65277778   0.67361111 
  704000        90000   -281282.57       284096       254924   0.68518519   0.65740741 
  705000        90000   -281019.68       285096       255825   0.62962963   0.68518519 
  706000        90000   -280886.15       286096       256726   0.64814815   0.67592593 
  707000        90000   -281524.29       287096       257631   0.68518519   0.65740741 
  708000        90000   -281376.27       288096       258540   0.66203704   0.66898148 
  709000        90000   -281702.21       289096       259427   0.68981481   0.65509259 
  710000        90000   -281381.65       290096       260313   0.69444444   0.65277778 
  711000        90000   -281285.58       291096       261208   0.68981481   0.65509259 
  712000        90000   -281589.26       292096       262096   0.69444444   0.65277778 
  713000        90000   -281009.33       293096       263004   0.68981481   0.65509259 
  714000        90000   -281036.48       294096       263898   0.65277778   0.67361111 
  715000        90000   -281333.03       295096       264800   0.64814815   0.67592593 
  716000        90000   -281332.66       296096       265709   0.65277778   0.67361111 
  717000        90000   -281139.55       297096       266608   0.68055556   0.65972222 
  718000        90000   -281560.56       298096       267485   0.69444444   0.65277778 
  719000        90000   -281641.62       299096       268377   0.68981481   0.65509259 
  720000        90000   -280931.06       300096       269274    0.7037037   0.64814815 
  721000        90000    -281349.4       301096       270176   0.70833333   0.64583333 
  722000        90000    -281459.6       302096       271067   0.68055556   0.65972222 
  723000        90000   -281016.19       303096       271948   0.70833333   0.64583333 
  724000        90000   -281353.75       304096       272844   0.67592593   0.66203704 
  725000        90000   -281260.53       305096       273741   0.67592593   0.66203704 
  726000        90000   -281139.92       306096       274631   0.69444444   0.65277778 
  727000        90000   -281126.98       307096       275518   0.64814815   0.67592593 
  728000        90000    -281548.8       308096       276420   0.68518519   0.65740741 
  729000        90000   -281386.31       309096       277313    0.7037037   0.64814815 
  730000        90000   -281740.72       310096       278214   0.65277778   0.67361111 
  731000        90000   -281418.09       311096       279115   0.66203704   0.66898148 
  732000        90000      -281545       312096       280007   0.69907407   0.65046296 
  733000        90000   -281317.75       313096       280890    0.6712963   0.66435185 
  734000        90000   -281772.04       314096       281787   0.71759259    0.6412037 
  735000        90000   -281018.83       315096       282694   0.68981481   0.65509259 
  736000        90000   -281608.58       316096       283578   0.65740741    0.6712963 
  737000        90000   -281370.15       317096       284470   0.68981481   0.65509259 
  738000        90000   -281385.45       318096       285370   0.69907407   0.65046296 
  739000        90000   -281190.47       319096       286264        0.625       0.6875 
  740000        90000   -281497.04       320096       287161   0.66666667   0.66666667 
  741000        90000   -281611.69       321096       288046   0.74074074   0.62962963 
  742000        90000   -281367.43       322096       288941   0.65277778   0.67361111 
  743000        90000   -281216.79       323096       289849   0.67592593   0.66203704 
  744000        90000   -281627.38       324096       290733   0.69444444   0.65277778 
  745000        90000   -281259.35       325096       291628   0.68981481   0.65509259 
  746000        90000   -281466.17       326096       292522   0.68981481   0.65509259 
  747000        90000   -281270.33       327096       293408   0.65277778   0.67361111 
  748000        90000   -281345.24       328096       294325   0.68981481   0.65509259 
  749000        90000   -281471.01       329096       295215   0.64814815   0.67592593 
  750000        90000   -281474.84       330096       296108   0.68981481   0.65509259 
  751000        90000   -281145.83       331096       297009   0.67592593   0.66203704 
  752000        90000   -281163.09       332096       297911    0.6712963   0.66435185 
  753000        90000   -281518.35       333096       298815   0.69907407   0.65046296 
  754000        90000   -281628.04       334096       299713   0.69907407   0.65046296 
  755000        90000   -281108.31       335096       300615   0.68518519   0.65740741 
  756000        90000   -281606.67       336096       301510    0.7037037   0.64814815 
  757000        90000   -281394.89       337096       302412    0.6712963   0.66435185 
  758000        90000   -281400.16       338096       303278   0.70833333   0.64583333 
  759000        90000   -281813.39       339096       304190   0.69444444   0.65277778 
  760000        90000   -281459.24       340096       305090   0.69444444   0.65277778 
  761000        90000    -281482.6       341096       305990    0.6712963   0.66435185 
  762000        90000   -281438.83       342096       306890   0.64814815   0.67592593 
  763000        90000   -281628.98       343096       307807    0.7037037   0.64814815 
  764000        90000   -281311.84       344096       308709   0.66203704   0.66898148 
  765000        90000    -281912.1       345096       309596   0.75925926   0.62037037 
  766000        90000   -281586.44       346096       310482   0.65740741    0.6712963 
  767000        90000   -281644.87       347096       311376   0.74537037   0.62731481 
  768000        90000   -281325.84       348096       312266   0.72222222   0.63888889 
  769000        90000   -281616.75       349096       313166    0.6712963   0.66435185 
  770000        90000    -281559.2       350096       314062    0.6712963   0.66435185 
  771000        90000   -281358.15       351096       314949   0.68981481   0.65509259 
  772000        90000   -281350.62       352096       315861   0.68518519   0.65740741 
  773000        90000   -281129.08       353096       316760   0.66666667   0.66666667 
  774000        90000   -280992.03       354096       317656   0.62962963   0.68518519 
  775000        90000   -281057.57       355096       318556   0.66666667   0.66666667 
  776000        90000   -281285.73       356096       319457   0.68055556   0.65972222 
  777000        90000   -281739.01       357096       320357   0.72685185   0.63657407 
  778000        90000   -281437.56       358096       321249   0.62962963   0.68518519 
  779000        90000   -281573.57       359096       322162   0.65277778   0.67361111 
  780000        90000   -281544.15       360096       323065   0.65740741    0.6712963 
  781000        90000   -280950.95       361096       323963   0.67592593   0.66203704 
  782000        90000   -281552.21       362096       324851   0.67592593   0.66203704 
  783000        90000   -280695.28       363096       325728   0.62962963   0.68518519 
  784000        90000   -281434.24       364096       326617   0.61574074   0.69212963 
  785000        90000   -281587.83       365096       327521        0.625       0.6875 
  786000        90000   -281581.86       366096       328422    0.7037037   0.64814815 
  787000        90000   -280821.43       367096       329323        0.625       0.6875 
  788000        90000    -281136.1       368096       330216   0.68055556   0.65972222 
  789000        90000   -281219.37       369096       331109    0.7037037   0.64814815 
  790000        90000   -281479.56       370096       331995   0.67592593   0.66203704 
  791000        90000   -281199.03       371096       332883    0.6712963   0.66435185 
  792000        90000   -281705.32       372096       333785   0.66666667   0.66666667 
  793000        90000   -281614.75       373096       334681   0.62962963   0.68518519 
  794000        90000   -281723.57       374096       335572    0.7037037   0.64814815 
  795000        90000   -281272.13       375096       336484    0.7037037   0.64814815 
  796000        90000   -281607.74       376096       337378    0.7037037   0.64814815 
  797000        90000   -281096.53       377096       338276   0.66203704   0.66898148 
  798000        90000   -281040.94       378096       339158   0.65740741    0.6712963 
  799000        90000   -281191.06       379096       340037   0.68055556   0.65972222 
  800000        90000   -280922.94       380096       340942   0.63425926   0.68287037 
  801000        90000   -281304.66       381096       341835   0.65277778   0.67361111 
  802000        90000   -281490.34       382096       342738   0.74074074   0.62962963 
  803000        90000   -281028.17       383096       343629   0.65740741    0.6712963 
  804000        90000   -281150.77       384096       344544   0.70833333   0.64583333 
  805000        90000   -281575.29       385096       345441   0.68055556   0.65972222 
  806000        90000   -281601.11       386096       346339   0.69444444   0.65277778 
  807000        90000    -280821.6       387096       347233    0.6712963   0.66435185 
[...]
39301000            0   -285330.54       249658            0            1          0.5 
39302000            0   -285330.54       250658            0            1          0.5 
39303000            0   -285330.54       251658            0            1          0.5 
39304000            0   -285330.54       252658            0            1          0.5 
39305000            0   -285330.54       253658            0            1          0.5 
39306000            0   -285330.54       254658            0            1          0.5 
39307000            0   -285330.54       255658            0            1          0.5 
39308000            0   -285330.54       256658            0            1          0.5 
39309000            0   -285330.54       257658            0            1          0.5 
39310000            0   -285330.54       258658            0            1          0.5 
39311000            0   -285330.54       259658            0            1          0.5 
39312000            0   -285330.54       260658            0            1          0.5 
39313000            0   -285330.54       261658            0            1          0.5 
39314000            0   -285330.54       262658            0            1          0.5 
39315000            0   -285330.54       263658            0            1          0.5 
39316000            0   -285330.54       264658            0            1          0.5 
39317000            0   -285330.54       265658            0            1          0.5 
39318000            0   -285330.54       266658            0            1          0.5 
39319000            0   -285330.54       267658            0            1          0.5 
39320000            0   -285330.54       268658            0            1          0.5 
39321000            0   -285330.54       269658            0            1          0.5 
39322000            0   -285330.54       270658            0            1          0.5 
39323000            0   -285330.54       271658            0            1          0.5 
39324000            0   -285330.54       272658            0            1          0.5 
39325000            0   -285330.54       273658            0            1          0.5 
39326000            0   -285330.54       274658            0            1          0.5 
39327000            0   -285330.54       275658            0            1          0.5 
39328000            0   -285330.54       276658            0            1          0.5 
39329000            0   -285330.54       277658            0            1          0.5 
39330000            0   -285330.54       278658            0            1          0.5 
39331000            0   -285330.54       279658            0            1          0.5 
39332000            0   -285330.54       280658            0            1          0.5 
39333000            0   -285330.54       281658            0            1          0.5 
39334000            0   -285330.54       282658            0            1          0.5 
39335000            0   -285330.54       283658            0            1          0.5 
39336000            0   -285330.54       284658            0            1          0.5 
39337000            0   -285330.54       285658            0            1          0.5 
39338000            0   -285330.54       286658            0            1          0.5 
39339000            0   -285330.54       287658            0            1          0.5 
39340000            0   -285330.54       288658            0            1          0.5 
39341000            0   -285330.54       289658            0            1          0.5 
39342000            0   -285330.54       290658            0            1          0.5 
39343000            0   -285330.54       291658            0            1          0.5 
39344000            0   -285330.54       292658            0            1          0.5 
39345000            0   -285330.54       293658            0            1          0.5 
39346000            0   -285330.54       294658            0            1          0.5 
39347000            0   -285330.54       295658            0            1          0.5 
39348000            0   -285330.54       296658            0            1          0.5 
39349000            0   -285330.54       297658            0            1          0.5 
39350000            0   -285330.54       298658            0            1          0.5 
39351000            0   -285330.54       299658            0            1          0.5 
39352000            0   -285330.54       300658            0            1          0.5 
39353000            0   -285330.54       301658            0            1          0.5 
39354000            0   -285330.54       302658            0            1          0.5 
39355000            0   -285330.54       303658            0            1          0.5 
39356000            0   -285330.54       304658            0            1          0.5 
39357000            0   -285330.54       305658            0            1          0.5 
39358000            0   -285330.54       306658            0            1          0.5 
39359000            0   -285330.54       307658            0            1          0.5 
39360000            0   -285330.54       308658            0            1          0.5 
39361000            0   -285330.54       309658            0            1          0.5 
39362000            0   -285330.54       310658            0            1          0.5 
39363000            0   -285330.54       311658            0            1          0.5 
39364000            0   -285330.54       312658            0            1          0.5 
39365000            0   -285330.54       313658            0            1          0.5 
39366000            0   -285330.54       314658            0            1          0.5 
39367000            0   -285330.54       315658            0            1          0.5 
39368000            0   -285330.54       316658            0            1          0.5 
39369000            0   -285330.54       317658            0            1          0.5 
39370000            0   -285330.54       318658            0            1          0.5 
39371000            0   -285330.54       319658            0            1          0.5 
39372000            0   -285330.54       320658            0            1          0.5 
39373000            0   -285330.54       321658            0            1          0.5 
39374000            0   -285330.54       322658            0            1          0.5 
39375000            0   -285330.54       323658            0            1          0.5 
39376000            0   -285330.54       324658            0            1          0.5 
39377000            0   -285330.54       325658            0            1          0.5 
39378000            0   -285330.54       326658            0            1          0.5 
39379000            0   -285330.54       327658            0            1          0.5 
39380000            0   -285330.54       328658            0            1          0.5 
39381000            0   -285330.54       329658            0            1          0.5 
39382000            0   -285330.54       330658            0            1          0.5 
39383000            0   -285330.54       331658            0            1          0.5 
39384000            0   -285330.54       332658            0            1          0.5 
39385000            0   -285330.54       333658            0            1          0.5 
39386000            0   -285330.54       334658            0            1          0.5 
39387000            0   -285330.54       335658            0            1          0.5 
39388000            0   -285330.54       336658            0            1          0.5 
39389000            0   -285330.54       337658            0            1          0.5 
39390000            0   -285330.54       338658            0            1          0.5 
39391000            0   -285330.54       339658            0            1          0.5 
39392000            0   -285330.54       340658            0            1          0.5 
39393000            0   -285330.54       341658            0            1          0.5 
39394000            0   -285330.54       342658            0            1          0.5 
39395000            0   -285330.54       343658            0            1          0.5 
39396000            0   -285330.54       344658            0            1          0.5 
39397000            0   -285330.54       345658            0            1          0.5 
39398000            0   -285330.54       346658            0            1          0.5 
39399000            0   -285330.54       347658            0            1          0.5 
39400000            0   -285330.54       348658            0            1          0.5 
39401000            0   -285330.54       349658            0            1          0.5 
39402000            0   -285330.54       350658            0            1          0.5 
39403000            0   -285330.54       351658            0            1          0.5 
39404000            0   -285330.54       352658            0            1          0.5 
39405000            0   -285330.54       353658            0            1          0.5 
39406000            0   -285330.54       354658            0            1          0.5 
39407000            0   -285330.54       355658            0            1          0.5 
39408000            0   -285330.54       356658            0            1          0.5 
39409000            0   -285330.54       357658            0            1          0.5 
39410000            0   -285330.54       358658            0            1          0.5 
39411000            0   -285330.54       359658            0            1          0.5 
39412000            0   -285330.54       360658            0            1          0.5 
39413000            0   -285330.54       361658            0            1          0.5 
39414000            0   -285330.54       362658            0            1          0.5 
39415000            0   -285330.54       363658            0            1          0.5 
39416000            0   -285330.54       364658            0            1          0.5 
39417000            0   -285330.54       365658            0            1          0.5 
39418000            0   -285330.54       366658            0            1          0.5 
39419000            0   -285330.54       367658            0            1          0.5 
39420000            0   -285330.54       368658            0            1          0.5 
39421000            0   -285330.54       369658            0            1          0.5 
39422000            0   -285330.54       370658            0            1          0.5 
39423000            0   -285330.54       371658            0            1          0.5 
39424000            0   -285330.54       372658            0            1          0.5 
39425000            0   -285330.54       373658            0            1          0.5 
39426000            0   -285330.54       374658            0            1          0.5 
39427000            0   -285330.54       375658            0            1          0.5 
39428000            0   -285330.54       376658            0            1          0.5 
39429000            0   -285330.54       377658            0            1          0.5 
39430000            0   -285330.54       378658            0            1          0.5 
39431000            0   -285330.54       379658            0            1          0.5 
39432000            0   -285330.54       380658            0            1          0.5 
39433000            0   -285330.54       381658            0            1          0.5 
39434000            0   -285330.54       382658            0            1          0.5 
39435000            0   -285330.54       383658            0            1          0.5 
39436000            0   -285330.54       384658            0            1          0.5 
39437000            0   -285330.54       385658            0            1          0.5 
39438000            0   -285330.54       386658            0            1          0.5 
39439000            0   -285330.54       387658            0            1          0.5 
39440000            0   -285330.54       388658            0            1          0.5 
39441000            0   -285330.54       389658            0            1          0.5 
39442000            0   -285330.54       390658            0            1          0.5 
39443000            0   -285330.54       391658            0            1          0.5 
39444000            0   -285330.54       392658            0            1          0.5 
39445000            0   -285330.54       393658            0            1          0.5 
39446000            0   -285330.54       394658            0            1          0.5 
39447000            0   -285330.54       395658            0            1          0.5 
39448000            0   -285330.54       396658            0            1          0.5 
39449000            0   -285330.54       397658            0            1          0.5 
39450000            0   -285330.54       398658            0            1          0.5 
39451000            0   -285330.54       399658            0            1          0.5 
39452000            0   -285330.54       400658            0            1          0.5 
39453000            0   -285330.54       401658            0            1          0.5 
39454000            0   -285330.54       402658            0            1          0.5 
39455000            0   -285330.54       403658            0            1          0.5 
39456000            0   -285330.54       404658            0            1          0.5 
39457000            0   -285330.54       405658            0            1          0.5 
39458000            0   -285330.54       406658            0            1          0.5 
39459000            0   -285330.54       407658            0            1          0.5 
39460000            0   -285330.54       408658            0            1          0.5 
39461000            0   -285330.54       409658            0            1          0.5 
39462000            0   -285330.54       410658            0            1          0.5 
39463000            0   -285330.54       411658            0            1          0.5 
39464000            0   -285330.54       412658            0            1          0.5 
39465000            0   -285330.54       413658            0            1          0.5 
39466000            0   -285330.54       414658            0            1          0.5 
39467000            0   -285330.54       415658            0            1          0.5 
39468000            0   -285330.54       416658            0            1          0.5 
39469000            0   -285330.54       417658            0            1          0.5 
39470000            0   -285330.54       418658            0            1          0.5 
39471000            0   -285330.54       419658            0            1          0.5 
39471246            0   -285330.54       419904            0            1          0.5 
Loop time of 3733.41 on 40 procs for 419904 steps with 1512 atoms

Performance: 9.718 ns/day, 2.470 hours/ns, 112.472 timesteps/s
99.9% CPU use with 40 MPI tasks x no OpenMP threads

MPI task timing breakdown:
Section |  min time  |  avg time  |  max time  |%varavg| %total
---------------------------------------------------------------
Pair    | 95.886     | 147.68     | 196.35     | 232.6 |  3.96
Bond    | 0.027255   | 0.034778   | 0.066039   |   3.7 |  0.00
Kspace  | 391.74     | 484.35     | 589.53     | 262.6 | 12.97
Neigh   | 149.42     | 206.61     | 257.71     | 215.1 |  5.53
Comm    | 243.17     | 248.82     | 253.03     |  18.1 |  6.66
Output  | 0.19458    | 0.19691    | 0.208      |   0.5 |  0.01
Modify  | 2639.5     | 2641.8     | 2643.7     |   2.5 | 70.76
Other   |            | 3.94       |            |       |  0.11

Nlocal:        37.8000 ave          46 max          31 min
Histogram: 10 4 10 0 0 0 0 0 2 14
Nghost:        4112.25 ave        4227 max        3982 min
Histogram: 16 0 0 0 0 0 0 0 16 8
Neighs:        20321.7 ave       27099 max       13375 min
Histogram: 6 2 0 6 5 6 6 1 4 4
FullNghs:      40640.4 ave       49427 max       33332 min
Histogram: 10 4 10 0 0 0 0 0 2 14

Total # of neighbors = 1625616
Ave neighs/atom = 1075.1429
Ave special neighs/atom = 0.0000000
Neighbor list builds = 839808
Dangerous builds = 0

# Full minimization
fix             relax all box/relax x 0.0 y 0.0 couple xy
minimize        1.0e-6 1.0e-9 1000 10000
PPPM initialization ...
  using 12-bit tables for long-range coulomb (../kspace.cpp:340)
  G vector (1/distance) = 0.29716793
  grid = 40 40 40
  stencil order = 5
  estimated absolute RMS force accuracy = 0.00037186203
  estimated relative force accuracy = 1.1198515e-06
  using double precision KISS FFT
  3d grid and FFT values/proc = 9367 1600
Per MPI rank memory allocation (min/avg/max) = 10.20 | 10.22 | 10.23 Mbytes
Step Temp PotEng f_swp[1] f_swp[2] v_rfet3 v_rfeo3 
39471246            0   -285330.54       419904            0            1          0.5 
39471247            0   -285330.65       419904            0            1          0.5 
Loop time of 0.00707047 on 40 procs for 1 steps with 1512 atoms

99.9% CPU use with 40 MPI tasks x no OpenMP threads

Minimization stats:
  Stopping criterion = energy tolerance
  Energy initial, next-to-last, final = 
     -285330.537743634  -285330.537743634  -285330.648142369
  Force two-norm initial, final = 829.66703 702.10124
  Force max component initial, final = 564.31588 469.83690
  Final line search alpha, max atom move = 1.7720572e-07 8.3257785e-05
  Iterations, force evaluations = 1 1

MPI task timing breakdown:
Section |  min time  |  avg time  |  max time  |%varavg| %total
---------------------------------------------------------------
Pair    | 0.00070932 | 0.0010572  | 0.001387   |   0.6 | 14.95
Bond    | 1.6595e-07 | 2.145e-07  | 2.84e-07   |   0.0 |  0.00
Kspace  | 0.0019302  | 0.0024815  | 0.0030504  |   0.7 | 35.10
Neigh   | 0.00070276 | 0.00096443 | 0.0012003  |   0.0 | 13.64
Comm    | 0.0011266  | 0.0012537  | 0.0013281  |   0.1 | 17.73
Output  | 0          | 0          | 0          |   0.0 |  0.00
Modify  | 0          | 0          | 0          |   0.0 |  0.00
Other   |            | 0.001313   |            |       | 18.58

Nlocal:        37.8000 ave          46 max          31 min
Histogram: 10 4 10 0 0 0 0 0 2 14
Nghost:        4112.25 ave        4227 max        3982 min
Histogram: 16 0 0 0 0 0 0 0 16 8
Neighs:        20320.9 ave       27097 max       13374 min
Histogram: 6 2 0 6 5 6 6 1 4 4
FullNghs:      40640.4 ave       49427 max       33332 min
Histogram: 10 4 10 0 0 0 0 0 2 14

Total # of neighbors = 1625616
Ave neighs/atom = 1075.1429
Ave special neighs/atom = 0.0000000
Neighbor list builds = 2
Dangerous builds = 0
unfix relax

thermo_style custom step temp pe
write_data magnetite_3x3x3_min.data
System init for write_data ...
PPPM initialization ...
  using 12-bit tables for long-range coulomb (../kspace.cpp:340)
  G vector (1/distance) = 0.29716495
  grid = 40 40 40
  stencil order = 5
  estimated absolute RMS force accuracy = 0.00037192324
  estimated relative force accuracy = 1.1200358e-06
  using double precision KISS FFT
  3d grid and FFT values/proc = 9367 1600

compute pe all pe
fix print_pe all ave/time 1 1 1 v_rfet3 v_rfeo3 c_pe v_ftemp file magnetite_3x3x3.temp off 1
run 0
PPPM initialization ...
  using 12-bit tables for long-range coulomb (../kspace.cpp:340)
  G vector (1/distance) = 0.29716495
  grid = 40 40 40
  stencil order = 5
  estimated absolute RMS force accuracy = 0.00037192324
  estimated relative force accuracy = 1.1200358e-06
  using double precision KISS FFT
  3d grid and FFT values/proc = 9367 1600
ERROR: Invalid variable reference v_temp in variable formula (../variable.cpp:1859)
Last command: run 0
