ITEM: TIMESTEP
0
ITEM: NUMBER OF ATOMS
648
ITEM: BOX BOUNDS xy xz yz pp pp pp
-2.5841700000000001e-01 2.5181583000000000e+01 0.0000000000000000e+00
-2.5841700000000001e-01 2.5181583000000000e+01 0.0000000000000000e+00
-2.5841700000000001e-01 2.5181583000000000e+01 0.0000000000000000e+00
ITEM: ATOMS id type c_coord
1 2 4
2 2 3
3 2 2
4 2 4
5 2 2
6 2 4
7 2 4
8 2 3
9 4 2
10 4 4
11 5 0
12 4 4
13 5 1
14 5 1
15 4 1
16 5 0
17 5 0
18 4 3
19 4 1
20 4 1
21 4 0
22 4 2
23 5 0
24 4 1
57 2 3
58 2 3
59 2 3
60 2 3
61 2 4
62 2 3
63 2 4
64 2 3
65 4 3
66 4 4
67 5 3
68 5 2
69 4 2
70 5 0
71 5 0
72 4 1
73 5 0
74 5 0
75 4 1
76 5 0
77 5 0
78 4 0
79 5 0
80 5 0
113 2 4
114 2 3
115 2 3
116 2 4
117 2 3
118 2 4
119 2 4
120 2 3
121 5 1
122 5 2
123 4 3
124 5 1
125 4 3
126 5 3
127 4 4
128 4 4
129 4 2
130 4 3
131 5 0
132 4 3
133 5 0
134 5 0
135 4 3
136 5 0
169 2 2
170 2 3
171 2 3
172 2 3
173 2 4
174 2 4
175 2 3
176 2 4
177 5 0
178 4 4
179 5 0
180 5 0
181 5 1
182 4 2
183 4 3
184 5 2
185 5 0
186 4 2
187 4 2
188 4 3
189 4 3
190 5 0
191 5 0
192 5 0
225 2 4
226 2 4
227 2 3
228 2 3
229 2 4
230 2 3
231 2 4
232 2 3
233 4 3
234 4 3
235 5 1
236 4 1
237 4 0
238 4 1
239 5 0
240 5 0
241 4 3
242 5 1
243 4 2
244 4 3
245 4 4
246 4 2
247 5 0
248 5 0
281 2 3
282 2 4
283 2 4
284 2 4
285 2 4
286 2 3
287 2 4
288 2 2
289 5 2
290 4 2
291 5 0
292 5 0
293 5 0
294 4 3
295 5 1
296 5 1
297 4 2
298 5 0
299 4 3
300 5 2
301 4 3
302 5 0
303 5 1
304 4 3
337 2 3
338 2 4
339 2 4
340 2 4
341 2 3
342 2 4
343 2 4
344 2 4
345 4 4
346 5 1
347 4 2
348 4 2
349 4 1
350 5 0
351 5 0
352 4 5
353 4 1
354 5 2
355 4 3
356 4 3
357 4 1
358 4 1
359 5 1
360 5 0
393 2 3
394 2 3
395 2 3
396 2 3
397 2 3
398 2 4
399 2 4
400 2 4
401 4 4
402 4 2
403 4 3
404 5 0
405 5 1
406 4 3
407 4 2
408 5 0
409 4 2
410 5 0
411 5 0
412 4 3
413 5 0
414 5 0
415 5 0
416 5 0
449 2 4
450 2 3
451 2 4
452 2 3
453 2 4
454 2 3
455 2 4
456 2 4
457 4 2
458 5 0
459 4 2
460 5 1
461 5 0
462 4 0
463 5 0
464 5 0
465 5 0
466 5 0
467 4 1
468 4 3
469 5 1
470 4 0
471 5 0
472 4 3
505 2 3
506 2 4
507 2 3
508 2 4
509 2 3
510 2 4
511 2 4
512 2 4
513 5 0
514 4 2
515 4 4
516 5 0
517 5 0
518 5 1
519 4 4
520 4 1
521 5 2
522 5 0
523 5 0
524 5 0
525 5 0
526 5 3
527 5 1
528 4 1
561 2 3
562 2 3
563 2 3
564 2 4
565 2 4
566 2 4
567 2 3
568 2 3
569 5 0
570 5 0
571 4 3
572 4 3
573 5 0
574 4 0
575 4 2
576 4 4
577 4 1
578 4 0
579 5 0
580 5 0
581 5 0
582 4 2
583 5 1
584 5 0
617 2 4
618 2 3
619 2 3
620 2 2
621 2 3
622 2 3
623 2 4
624 2 4
625 4 2
626 5 0
627 4 2
628 4 3
629 4 2
630 5 0
631 4 2
632 4 2
633 5 1
634 4 3
635 5 0
636 4 4
637 4 2
638 5 0
639 4 4
640 4 3
673 2 4
674 2 3
675 2 4
676 2 3
677 2 4
678 2 4
679 2 3
680 2 3
681 5 0
682 4 2
683 5 0
684 5 0
685 5 0
686 4 3
687 5 0
688 4 3
689 5 0
690 5 0
691 4 4
692 5 1
693 4 4
694 4 0
695 5 0
696 4 2
729 2 3
730 2 3
731 2 3
732 2 3
733 2 4
734 2 4
735 2 4
736 2 4
737 5 2
738 5 0
739 5 2
740 4 1
741 4 0
742 4 3
743 5 0
744 4 1
745 4 3
746 4 2
747 4 1
748 4 2
749 5 0
750 4 2
751 5 0
752 4 4
785 2 3
786 2 3
787 2 3
788 2 3
789 2 4
790 2 4
791 2 3
792 2 4
793 5 0
794 5 0
795 5 3
796 4 4
797 5 2
798 5 0
799 5 1
800 5 2
801 4 3
802 4 2
803 5 1
804 4 3
805 5 0
806 5 0
807 5 0
808 4 3
841 2 3
842 2 4
843 2 4
844 2 3
845 2 3
846 2 3
847 2 3
848 2 4
849 4 2
850 5 0
851 4 2
852 5 0
853 4 2
854 5 0
855 4 2
856 4 4
857 5 0
858 4 2
859 5 0
860 5 1
861 5 0
862 4 3
863 5 0
864 5 0
897 2 4
898 2 4
899 2 4
900 2 4
901 2 4
902 2 4
903 2 4
904 2 4
905 4 2
906 5 0
907 5 3
908 5 0
909 5 0
910 5 1
911 4 3
912 4 4
913 5 0
914 4 2
915 5 0
916 4 1
917 4 2
918 4 3
919 4 1
920 4 2
953 2 3
954 2 4
955 2 3
956 2 4
957 2 4
958 2 4
959 2 4
960 2 3
961 4 4
962 5 1
963 5 0
964 5 2
965 4 3
966 4 3
967 4 1
968 4 3
969 5 0
970 5 1
971 4 3
972 4 1
973 5 0
974 5 1
975 4 1
976 5 0
1009 2 3
1010 2 3
1011 2 4
1012 2 4
1013 2 4
1014 2 4
1015 2 4
1016 2 4
1017 5 0
1018 5 0
1019 5 1
1020 4 3
1021 5 1
1022 5 1
1023 5 0
1024 5 1
1025 5 1
1026 5 0
1027 5 0
1028 4 3
1029 5 1
1030 5 0
1031 4 3
1032 5 0
1065 2 4
1066 2 4
1067 2 2
1068 2 3
1069 2 4
1070 2 4
1071 2 4
1072 2 4
1073 5 0
1074 4 2
1075 4 3
1076 4 2
1077 5 0
1078 4 1
1079 5 0
1080 5 2
1081 4 3
1082 5 0
1083 5 2
1084 5 0
1085 5 0
1086 4 2
1087 4 3
1088 4 4
1121 2 4
1122 2 4
1123 2 4
1124 2 4
1125 2 3
1126 2 3
1127 2 3
1128 2 3
1129 5 3
1130 5 3
1131 4 1
1132 4 2
1133 4 2
1134 4 2
1135 5 1
1136 5 0
1137 4 3
1138 5 0
1139 4 0
1140 5 1
1141 5 1
1142 5 0
1143 4 1
1144 4 2
1177 2 3
1178 2 4
1179 2 3
1180 2 3
1181 2 3
1182 2 3
1183 2 3
1184 2 3
1185 5 0
1186 5 0
1187 5 0
1188 4 3
1189 4 4
1190 4 1
1191 4 2
1192 5 0
1193 5 1
1194 4 1
1195 4 2
1196 4 3
1197 5 0
1198 5 2
1199 5 1
1200 4 3
1233 2 3
1234 2 3
1235 2 4
1236 2 3
1237 2 4
1238 2 4
1239 2 3
1240 2 2
1241 5 2
1242 5 0
1243 4 1
1244 4 2
1245 4 3
1246 4 4
1247 4 3
1248 4 2
1249 4 2
1250 5 1
1251 4 1
1252 5 0
1253 4 2
1254 4 3
1255 4 3
1256 4 2
1289 2 4
1290 2 3
1291 2 2
1292 2 3
1293 2 3
1294 2 4
1295 2 3
1296 2 4
1297 5 0
1298 4 3
1299 5 1
1300 4 1
1301 4 3
1302 4 2
1303 5 0
1304 4 2
1305 5 0
1306 5 0
1307 4 2
1308 4 1
1309 4 2
1310 4 1
1311 4 3
1312 4 1
1345 2 3
1346 2 3
1347 2 2
1348 2 3
1349 2 3
1350 2 3
1351 2 3
1352 2 4
1353 4 1
1354 5 1
1355 4 2
1356 4 3
1357 5 0
1358 5 0
1359 4 2
1360 4 3
1361 5 0
1362 5 0
1363 4 2
1364 4 3
1365 5 1
1366 4 4
1367 4 2
1368 5 1
1401 2 3
1402 2 3
1403 2 4
1404 2 3
1405 2 4
1406 2 2
1407 2 3
1408 2 2
1409 4 1
1410 5 0
1411 4 2
1412 5 1
1413 5 0
1414 5 0
1415 5 0
1416 4 3
1417 5 1
1418 5 1
1419 5 1
1420 5 1
1421 4 3
1422 5 0
1423 5 0
1424 4 0
1457 2 2
1458 2 4
1459 2 3
1460 2 4
1461 2 4
1462 2 4
1463 2 4
1464 2 4
1465 4 3
1466 5 0
1467 5 0
1468 4 0
1469 4 2
1470 4 2
1471 4 2
1472 5 2
1473 4 2
1474 4 3
1475 5 0
1476 5 1
1477 4 5
1478 4 2
1479 4 0
1480 4 1
