ITEM: TIMESTEP
0
ITEM: NUMBER OF ATOMS
1512
ITEM: BOX BOUNDS xy xz yz pp pp pp
-2.5841700000000001e-01 2.5181583000000000e+01 0.0000000000000000e+00
-2.5841700000000001e-01 2.5181583000000000e+01 0.0000000000000000e+00
-2.5841700000000001e-01 2.5181583000000000e+01 0.0000000000000000e+00
ITEM: ATOMS id mol type q x y z
1 1 2 1.575 1.00991 1.08599 1.03138
2 1 2 1.575 7.48578 7.41004 7.42516
3 1 2 1.575 5.34559 1.06024 5.36839
4 1 2 1.575 3.16361 7.44321 3.20104
5 1 2 1.575 1.1046 5.29016 5.29528
6 1 2 1.575 7.41501 3.20556 3.22446
7 1 2 1.575 5.30849 5.30518 0.996568
8 1 2 1.575 3.20324 3.15951 7.43099
9 2 4 1.575 4.21037 0.0221723 -0.0479041
10 2 4 1.575 2.14271 2.13096 4.22075
11 2 5 1.05 6.37031 6.34734 4.1957
12 2 4 1.575 6.36727 4.22256 6.40026
13 2 5 1.05 2.08222 4.28099 2.06391
14 2 5 1.05 0.0206324 6.34003 2.10146
15 2 4 1.575 -0.039495 2.11891 6.3598
16 2 5 1.05 0.080295 4.26513 -0.0288069
17 2 5 1.05 4.19537 2.14933 2.14166
18 2 4 1.575 4.2455 6.37061 6.37355
19 2 4 1.575 2.10213 -0.033353 6.4297
20 2 4 1.575 6.3592 0.00586525 2.11818
21 2 4 1.575 -0.0104127 -0.0250649 4.24654
22 2 4 1.575 6.38592 2.12411 -0.0262496
23 2 5 1.05 2.10354 6.3293 0.0304489
24 2 4 1.575 4.25341 4.26902 4.17464
25 0 3 -1.05 2.15287 8.43413 8.38121
26 0 3 -1.05 6.32304 0.0978712 0.165851
27 0 3 -1.05 4.14405 2.24694 4.28593
28 0 3 -1.05 4.21753 6.32174 4.32165
29 0 3 -1.05 8.32114 4.37828 6.43292
30 0 3 -1.05 0.0360284 4.32946 2.19438
31 0 3 -1.05 6.38365 6.39425 2.10151
32 0 3 -1.05 2.04178 2.18877 6.22286
33 0 3 -1.05 8.4814 2.3229 8.46866
34 0 3 -1.05 0.0614343 6.38026 0.10266
35 0 3 -1.05 4.29949 4.20189 2.2858
36 0 3 -1.05 4.34033 4.3404 6.33536
37 0 3 -1.05 6.5108 8.47797 4.1642
38 0 3 -1.05 2.26097 0.211349 4.24531
39 0 3 -1.05 2.18131 6.40653 6.32472
40 0 3 -1.05 6.43424 2.04605 2.05818
41 0 3 -1.05 8.53153 8.34719 2.26003
42 0 3 -1.05 0.112598 0.0933234 6.26992
43 0 3 -1.05 2.19627 4.10573 4.33861
44 0 3 -1.05 6.30519 4.2865 4.41628
45 0 3 -1.05 4.21918 6.30821 8.35179
46 0 3 -1.05 4.33119 2.08117 0.0841433
47 0 3 -1.05 6.33854 2.29274 6.37309
48 0 3 -1.05 2.09435 6.31816 2.15539
49 0 3 -1.05 4.3329 0.045939 2.06802
50 0 3 -1.05 4.22198 8.3665 6.2906
51 0 3 -1.05 0.206732 2.14586 4.30942
52 0 3 -1.05 8.55574 6.47359 4.20349
53 0 3 -1.05 2.10526 4.30605 0.117613
54 0 3 -1.05 6.46788 4.31492 8.34405
55 0 3 -1.05 2.05587 2.04642 2.27848
56 0 3 -1.05 6.23704 6.26272 6.46639
57 1 2 1.575 9.49503 1.01758 1.09196
58 1 2 1.575 15.8149 7.49138 7.43181
59 1 2 1.575 13.773 1.06622 5.32473
60 1 2 1.575 11.5727 7.4496 3.10319
61 1 2 1.575 9.58296 5.20367 5.32591
62 1 2 1.575 15.9395 3.13717 3.21729
63 1 2 1.575 13.7654 5.27151 1.02755
64 1 2 1.575 11.6113 3.16977 7.4549
65 2 4 1.575 12.6671 -0.0525265 0.013846
66 2 4 1.575 10.6198 2.13924 4.22378
67 2 5 1.05 14.8085 6.30196 4.29644
68 2 5 1.05 14.7579 4.31453 6.29255
69 2 4 1.575 10.5625 4.30818 2.10429
70 2 5 1.05 8.47874 6.34522 2.12569
71 2 5 1.05 8.46318 2.11076 6.38233
72 2 4 1.575 8.46795 4.25257 -0.0294613
73 2 5 1.05 12.7437 2.15071 2.13816
74 2 5 1.05 12.7121 6.38775 6.33301
75 2 4 1.575 10.5363 -0.015139 6.36159
76 2 5 1.05 14.8787 -0.00550229 2.12665
77 2 5 1.05 8.52092 0.0214752 4.22556
78 2 4 1.575 14.8857 2.15842 -0.0674054
79 2 5 1.05 10.608 6.31364 -0.0067735
80 2 5 1.05 12.7473 4.19314 4.25393
81 0 3 -1.05 10.6152 8.49236 8.44378
82 0 3 -1.05 14.6889 0.152864 0.0852345
83 0 3 -1.05 12.6159 2.12031 4.21023
84 0 3 -1.05 12.9767 6.35646 4.26217
85 0 3 -1.05 16.9931 4.23428 6.49809
86 0 3 -1.05 8.58023 4.28726 2.0299
87 0 3 -1.05 14.949 6.48657 1.94804
88 0 3 -1.05 10.6467 2.03438 6.19642
89 0 3 -1.05 16.9372 2.1728 8.44393
90 0 3 -1.05 8.49202 6.28815 -0.0729851
91 0 3 -1.05 12.5929 4.29583 2.18476
92 0 3 -1.05 12.8637 4.25186 6.29965
93 0 3 -1.05 14.9433 8.59078 4.09176
94 0 3 -1.05 10.5931 0.203143 4.26989
95 0 3 -1.05 10.5344 6.52903 6.43744
96 0 3 -1.05 14.7999 2.10757 2.12104
97 0 3 -1.05 16.8469 8.36007 2.15005
98 0 3 -1.05 8.64026 -0.0174879 6.25334
99 0 3 -1.05 10.5175 4.05282 4.15541
100 0 3 -1.05 14.9938 4.32362 4.2512
101 0 3 -1.05 12.6303 6.52836 8.5262
102 0 3 -1.05 12.7754 2.01958 0.00969698
103 0 3 -1.05 15.0056 2.23514 6.5351
104 0 3 -1.05 10.603 6.32436 2.0686
105 0 3 -1.05 12.7799 0.145778 2.12512
106 0 3 -1.05 12.5367 8.52015 6.46698
107 0 3 -1.05 8.55412 2.07905 4.25462
108 0 3 -1.05 17.0069 6.42237 4.18538
109 0 3 -1.05 10.6138 4.28107 0.118017
110 0 3 -1.05 14.9598 4.13844 8.5201
111 0 3 -1.05 10.64 2.27288 2.20415
112 0 3 -1.05 14.9362 6.2752 6.26115
113 1 2 1.575 18.0186 1.05504 1.05864
114 1 2 1.575 24.4187 7.44488 7.33895
115 1 2 1.575 22.2964 1.03569 5.2868
116 1 2 1.575 20.1839 7.42065 3.16398
117 1 2 1.575 17.9924 5.23463 5.27267
118 1 2 1.575 24.4231 3.07806 3.10661
119 1 2 1.575 22.2491 5.2874 1.08508
120 1 2 1.575 20.1374 3.07414 7.43692
121 2 5 1.05 21.2047 -0.018997 0.0577128
122 2 5 1.05 19.0817 2.1096 4.22639
123 2 4 1.575 23.3407 6.32015 4.23539
124 2 5 1.05 23.3304 4.22484 6.38275
125 2 4 1.575 19.1366 4.21626 2.12261
126 2 5 1.05 16.9758 6.30689 2.12143
127 2 4 1.575 16.9809 2.134 6.31574
128 2 4 1.575 16.9634 4.20306 -0.019273
129 2 4 1.575 21.189 2.07719 2.09733
130 2 4 1.575 21.2751 6.33908 6.32914
131 2 5 1.05 19.0741 -0.0667704 6.29568
132 2 4 1.575 23.3496 -0.00581847 2.09057
133 2 5 1.05 16.9623 -0.0314157 4.20163
134 2 5 1.05 23.2948 2.11034 -0.0185631
135 2 4 1.575 19.1245 6.37086 -0.0865081
136 2 5 1.05 21.2628 4.1973 4.2395
137 0 3 -1.05 19.1655 8.32407 8.44431
138 0 3 -1.05 23.1773 -0.0465633 0.212846
139 0 3 -1.05 21.0384 2.14367 4.08915
140 0 3 -1.05 21.2931 6.37787 4.40895
141 0 3 -1.05 -0.140802 4.13831 6.44145
142 0 3 -1.05 17.0938 4.42196 1.99732
143 0 3 -1.05 23.1881 6.50072 2.33091
144 0 3 -1.05 18.9692 2.14445 6.26579
145 0 3 -1.05 -0.00795843 2.21798 8.35245
146 0 3 -1.05 17.0425 6.40972 0.156459
147 0 3 -1.05 21.0906 4.20632 2.1115
148 0 3 -1.05 21.265 4.44553 6.29734
149 0 3 -1.05 23.3358 8.48432 4.24449
150 0 3 -1.05 19.0846 0.178507 4.30056
151 0 3 -1.05 19.1985 6.52788 6.54916
152 0 3 -1.05 23.2496 2.00218 2.17267
153 0 3 -1.05 -0.180655 8.46164 2.29548
154 0 3 -1.05 17.0525 0.191154 6.32283
155 0 3 -1.05 19.0444 4.19817 4.10534
156 0 3 -1.05 23.269 4.23899 4.15965
157 0 3 -1.05 21.0697 6.37548 8.54036
158 0 3 -1.05 21.1108 2.09499 0.193444
159 0 3 -1.05 23.3973 2.16976 6.37019
160 0 3 -1.05 18.9681 6.3591 2.05704
161 0 3 -1.05 21.2603 0.0211155 2.19591
162 0 3 -1.05 21.0492 8.40979 6.33172
163 0 3 -1.05 17.0698 2.18759 4.34731
164 0 3 -1.05 -0.234019 6.56423 4.2571
165 0 3 -1.05 18.9005 4.40865 0.0822698
166 0 3 -1.05 23.3392 4.27206 8.41506
167 0 3 -1.05 19.135 2.27715 2.15226
168 0 3 -1.05 23.253 6.33213 6.19898
169 1 2 1.575 1.07067 9.56901 0.936093
170 1 2 1.575 7.4582 15.9102 7.43897
171 1 2 1.575 5.37217 9.4717 5.32328
172 1 2 1.575 3.11647 15.9471 3.14012
173 1 2 1.575 1.0525 13.7967 5.29359
174 1 2 1.575 7.38928 11.6291 3.13232
175 1 2 1.575 5.34764 13.7853 1.05431
176 1 2 1.575 3.15639 11.6311 7.41776
177 2 5 1.05 4.26084 8.45764 0.0274707
178 2 4 1.575 2.14345 10.5502 4.22059
179 2 5 1.05 6.3452 14.783 4.21191
180 2 5 1.05 6.36829 12.6759 6.30046
181 2 5 1.05 2.17368 12.7204 2.10443
182 2 4 1.575 0.00100963 14.8219 2.12713
183 2 4 1.575 0.000557132 10.6185 6.40619
184 2 5 1.05 0.0485605 12.663 0.0755002
185 2 5 1.05 4.26866 10.589 2.12015
186 2 4 1.575 4.2064 14.7689 6.35901
187 2 4 1.575 2.11275 8.45549 6.30658
188 2 4 1.575 6.265 8.46318 2.09781
189 2 4 1.575 -0.0104226 8.51417 4.18607
190 2 5 1.05 6.34157 10.6214 0.0612012
191 2 5 1.05 2.06684 14.7638 -0.00751944
192 2 5 1.05 4.23069 12.6867 4.24435
193 0 3 -1.05 2.22451 16.9916 8.38971
194 0 3 -1.05 6.49256 8.52161 0.156844
195 0 3 -1.05 4.13388 10.6179 4.18913
196 0 3 -1.05 4.33449 14.7866 4.17893
197 0 3 -1.05 8.42706 12.6466 6.49984
198 0 3 -1.05 -0.055375 12.7919 2.13212
199 0 3 -1.05 6.47314 15.0033 2.04567
200 0 3 -1.05 2.06106 10.4642 6.32404
201 0 3 -1.05 8.37905 10.6815 8.42479
202 0 3 -1.05 0.0610907 14.711 0.0690604
203 0 3 -1.05 4.15942 12.6092 2.09202
204 0 3 -1.05 4.2426 12.7904 6.33763
205 0 3 -1.05 6.3769 17.0765 4.10268
206 0 3 -1.05 2.04322 8.56379 4.38224
207 0 3 -1.05 2.26123 14.988 6.28503
208 0 3 -1.05 6.38942 10.4346 2.15029
209 0 3 -1.05 8.43261 16.8544 2.10298
210 0 3 -1.05 0.161773 8.50189 6.27673
211 0 3 -1.05 2.04724 12.6487 4.14516
212 0 3 -1.05 6.33997 12.7723 4.28648
213 0 3 -1.05 4.44411 15.0113 8.36569
214 0 3 -1.05 4.28313 10.5509 0.0333809
215 0 3 -1.05 6.42725 10.6407 6.33409
216 0 3 -1.05 2.08428 14.8327 2.09075
217 0 3 -1.05 4.37473 8.43848 2.2312
218 0 3 -1.05 4.17633 16.8281 6.42813
219 0 3 -1.05 0.15777 10.4528 4.30631
220 0 3 -1.05 8.54648 14.86 4.1193
221 0 3 -1.05 2.03854 12.6207 -0.0889617
222 0 3 -1.05 6.48772 12.6758 8.49763
223 0 3 -1.05 2.20462 10.6364 2.2314
224 0 3 -1.05 6.29632 14.6862 6.21806
225 1 2 1.575 9.53151 9.51645 1.05244
226 1 2 1.575 15.8318 15.8947 7.41263
227 1 2 1.575 13.7816 9.62274 5.30977
228 1 2 1.575 11.669 15.9021 3.20566
229 1 2 1.575 9.60776 13.7011 5.2827
230 1 2 1.575 15.9177 11.7281 3.12951
231 1 2 1.575 13.8007 13.7607 1.09521
232 1 2 1.575 11.6587 11.6352 7.43644
233 2 4 1.575 12.7147 8.45811 -0.0347477
234 2 4 1.575 10.5595 10.6035 4.22684
235 2 5 1.05 14.8726 14.869 4.2008
236 2 4 1.575 14.821 12.7148 6.34842
237 2 4 1.575 10.5855 12.7461 2.14223
238 2 4 1.575 8.53078 14.8223 2.1611
239 2 5 1.05 8.47862 10.5771 6.39037
240 2 5 1.05 8.4866 12.6949 0.0206413
241 2 4 1.575 12.7369 10.6784 2.1351
242 2 5 1.05 12.6846 14.8126 6.32996
243 2 4 1.575 10.6455 8.43734 6.40522
244 2 4 1.575 14.8568 8.45852 2.13905
245 2 4 1.575 8.46125 8.4252 4.25676
246 2 4 1.575 14.8541 10.6168 -0.028409
247 2 5 1.05 10.6426 14.8465 0.0147253
248 2 5 1.05 12.6643 12.7184 4.27245
249 0 3 -1.05 10.6579 16.9164 8.46429
250 0 3 -1.05 14.755 8.47673 0.0406508
251 0 3 -1.05 12.7439 10.4986 4.11665
252 0 3 -1.05 12.743 14.8331 4.23837
253 0 3 -1.05 16.7939 12.6479 6.25375
254 0 3 -1.05 8.50862 12.8151 2.22032
255 0 3 -1.05 14.9383 14.9549 2.10835
256 0 3 -1.05 10.6512 10.6382 6.29242
257 0 3 -1.05 16.7598 10.6395 8.37244
258 0 3 -1.05 8.47332 14.8681 0.0888099
259 0 3 -1.05 12.7816 12.5482 2.1078
260 0 3 -1.05 12.6918 12.7762 6.34461
261 0 3 -1.05 14.7382 16.82 4.11614
262 0 3 -1.05 10.6425 8.67409 4.12242
263 0 3 -1.05 10.6461 14.8975 6.35574
264 0 3 -1.05 14.795 10.5193 2.03836
265 0 3 -1.05 16.8262 16.81 2.01969
266 0 3 -1.05 8.53705 8.47299 6.22522
267 0 3 -1.05 10.6041 12.5651 4.21165
268 0 3 -1.05 14.9121 12.6727 4.27312
269 0 3 -1.05 12.7273 14.9241 8.3768
270 0 3 -1.05 12.842 10.5113 0.0759765
271 0 3 -1.05 14.8975 10.6837 6.38639
272 0 3 -1.05 10.587 14.8283 2.045
273 0 3 -1.05 12.7933 8.56468 2.11461
274 0 3 -1.05 12.6657 16.7828 6.44841
275 0 3 -1.05 8.58727 10.5741 4.19239
276 0 3 -1.05 16.9608 14.7597 4.13266
277 0 3 -1.05 10.663 12.793 0.0976032
278 0 3 -1.05 14.722 12.6236 8.36361
279 0 3 -1.05 10.8371 10.5211 2.07515
280 0 3 -1.05 14.7482 14.7764 6.30161
281 1 2 1.575 18.0554 9.52222 1.055
282 1 2 1.575 24.3455 15.8667 7.43417
283 1 2 1.575 22.23 9.62477 5.34256
284 1 2 1.575 20.0984 15.9138 3.19422
285 1 2 1.575 18.0408 13.8239 5.33638
286 1 2 1.575 24.3955 11.6032 3.15186
287 1 2 1.575 22.2636 13.8011 1.05925
288 1 2 1.575 20.17 11.7019 7.41542
289 2 5 1.05 21.2551 8.48652 -0.0295757
290 2 4 1.575 19.0836 10.6419 4.22021
291 2 5 1.05 23.2898 14.8674 4.33146
292 2 5 1.05 23.2762 12.7546 6.33624
293 2 5 1.05 19.0628 12.7403 2.11234
294 2 4 1.575 16.998 14.7985 2.13611
295 2 5 1.05 16.924 10.6796 6.35348
296 2 5 1.05 16.9585 12.7086 -0.0425663
297 2 4 1.575 21.2244 10.6006 2.0931
298 2 5 1.05 21.1821 14.8313 6.36071
299 2 4 1.575 19.0968 8.48329 6.36559
300 2 5 1.05 23.3418 8.45559 2.09804
301 2 4 1.575 16.9103 8.44936 4.32278
302 2 5 1.05 23.3378 10.5449 -0.00942746
303 2 5 1.05 19.0518 14.844 -0.0232855
304 2 4 1.575 21.2402 12.7923 4.29309
305 0 3 -1.05 19.1402 16.8748 8.4227
306 0 3 -1.05 23.2547 8.45454 -0.0400283
307 0 3 -1.05 21.0909 10.5583 4.18509
308 0 3 -1.05 21.2663 14.6438 4.18051
309 0 3 -1.05 0.0513208 12.5659 6.37491
310 0 3 -1.05 16.8983 12.8302 1.95957
311 0 3 -1.05 23.4078 14.9989 2.12557
312 0 3 -1.05 18.9883 10.4823 6.23786
313 0 3 -1.05 0.0404957 10.6209 8.36452
314 0 3 -1.05 17.0301 14.7743 0.113468
315 0 3 -1.05 21.1358 12.5671 2.07522
316 0 3 -1.05 21.2131 12.6624 6.21865
317 0 3 -1.05 23.3088 16.9551 4.17309
318 0 3 -1.05 18.9952 8.51419 4.28614
319 0 3 -1.05 19.1743 14.9065 6.47375
320 0 3 -1.05 23.189 10.6179 2.14791
321 0 3 -1.05 -0.18842 16.7925 1.93176
322 0 3 -1.05 17.2278 8.32768 6.26575
323 0 3 -1.05 19.0898 12.6285 4.27927
324 0 3 -1.05 23.2364 12.7051 4.32093
325 0 3 -1.05 21.098 14.9349 8.50684
326 0 3 -1.05 21.1776 10.4613 -0.0398438
327 0 3 -1.05 23.4836 10.6054 6.3449
328 0 3 -1.05 18.9744 14.8155 2.00743
329 0 3 -1.05 21.0651 8.57324 2.06239
330 0 3 -1.05 21.0381 16.9451 6.45853
331 0 3 -1.05 17.1361 10.3585 4.15765
332 0 3 -1.05 0.00150697 14.8046 4.09246
333 0 3 -1.05 18.9115 12.8133 -0.118131
334 0 3 -1.05 23.5176 12.6324 8.40739
335 0 3 -1.05 19.1673 10.5856 2.20176
336 0 3 -1.05 23.2646 14.77 6.33352
337 1 2 1.575 0.979464 18.0797 1.05372
338 1 2 1.575 7.43944 24.4331 7.42332
339 1 2 1.575 5.31923 18.0231 5.37578
340 1 2 1.575 3.20378 24.4142 3.17918
341 1 2 1.575 1.02455 22.378 5.29548
342 1 2 1.575 7.3902 20.1204 3.19436
343 1 2 1.575 5.29792 22.2738 1.05688
344 1 2 1.575 3.13111 20.2014 7.44777
345 2 4 1.575 4.18265 16.9753 0.0191159
346 2 5 1.05 2.01801 19.1266 4.22593
347 2 4 1.575 6.3914 23.3154 4.2911
348 2 4 1.575 6.35267 21.2412 6.32688
349 2 4 1.575 2.15601 21.2541 2.12838
350 2 5 1.05 0.0186533 23.3916 2.13914
351 2 5 1.05 0.0653394 19.0557 6.35104
352 2 4 1.575 -0.0328541 21.1968 0.0235987
353 2 4 1.575 4.19434 19.1297 2.08421
354 2 5 1.05 4.19305 23.3295 6.37645
355 2 4 1.575 2.07655 16.931 6.30479
356 2 4 1.575 6.3837 16.9678 2.19135
357 2 4 1.575 -0.0363781 16.9355 4.32338
358 2 4 1.575 6.35517 19.1152 -0.0782707
359 2 5 1.05 2.13211 23.3199 0.038067
360 2 5 1.05 4.20211 21.2335 4.26167
361 0 3 -1.05 2.16599 -0.00983667 8.43163
362 0 3 -1.05 6.22683 16.924 0.212869
363 0 3 -1.05 4.34104 19.0918 4.09715
364 0 3 -1.05 4.4089 23.3362 4.19143
365 0 3 -1.05 8.35704 21.0722 6.48639
366 0 3 -1.05 0.0720584 21.0725 1.97602
367 0 3 -1.05 6.3792 23.3764 2.17917
368 0 3 -1.05 2.12481 18.9465 6.3195
369 0 3 -1.05 8.46204 19.1534 8.35127
370 0 3 -1.05 -0.169608 23.066 0.0744826
371 0 3 -1.05 4.17672 21.171 2.14468
372 0 3 -1.05 4.27232 21.2447 6.31672
373 0 3 -1.05 6.40658 -0.120215 4.12135
374 0 3 -1.05 2.16907 17.0001 4.3149
375 0 3 -1.05 2.23701 23.3809 6.33141
376 0 3 -1.05 6.27557 18.9625 2.03232
377 0 3 -1.05 8.40633 -0.155243 2.14644
378 0 3 -1.05 0.0994799 16.9168 6.31298
379 0 3 -1.05 2.1637 21.1563 4.14065
380 0 3 -1.05 6.38703 21.3575 4.36448
381 0 3 -1.05 4.28316 23.3583 8.34204
382 0 3 -1.05 4.2852 18.9645 0.083718
383 0 3 -1.05 6.48243 19.1196 6.33615
384 0 3 -1.05 2.14613 23.2059 2.13416
385 0 3 -1.05 4.368 17.0197 2.00674
386 0 3 -1.05 4.11483 -0.012106 6.37682
387 0 3 -1.05 0.123024 18.9383 4.22996
388 0 3 -1.05 8.40011 23.3701 4.21223
389 0 3 -1.05 1.91769 21.1504 0.011146
390 0 3 -1.05 6.54165 21.0702 8.3333
391 0 3 -1.05 2.25979 19.1854 2.14347
392 0 3 -1.05 6.42472 23.2295 6.29282
393 1 2 1.575 9.60529 18.0732 1.01307
394 1 2 1.575 15.9101 24.2976 7.36526
395 1 2 1.575 13.8461 18.0736 5.30604
396 1 2 1.575 11.7587 24.344 3.16479
397 1 2 1.575 9.54122 22.2945 5.3044
398 1 2 1.575 15.8681 20.2077 3.14787
399 1 2 1.575 13.7848 22.2102 1.07682
400 1 2 1.575 11.6905 20.1267 7.45616
401 2 4 1.575 12.7262 16.9487 -0.0528336
402 2 4 1.575 10.6006 19.1031 4.26652
403 2 4 1.575 14.8609 23.3489 4.2196
404 2 5 1.05 14.8294 21.1793 6.37301
405 2 5 1.05 10.6312 21.2449 2.11604
406 2 4 1.575 8.54985 23.3085 2.15355
407 2 4 1.575 8.46047 19.108 6.34798
408 2 5 1.05 8.53662 21.2661 0.0267559
409 2 4 1.575 12.6998 19.135 2.14567
410 2 5 1.05 12.7092 23.3302 6.33579
411 2 5 1.05 10.6199 16.9644 6.3286
412 2 4 1.575 14.8744 17.023 2.19515
413 2 5 1.05 8.47065 16.9684 4.24991
414 2 5 1.05 14.8661 19.1023 -0.0468662
415 2 5 1.05 10.6247 23.2977 0.0280521
416 2 5 1.05 12.7481 21.219 4.24793
417 0 3 -1.05 10.6788 -0.0262773 8.38665
418 0 3 -1.05 14.6483 16.9229 0.119597
419 0 3 -1.05 12.6457 18.9477 4.08877
420 0 3 -1.05 12.8961 23.3321 4.2969
421 0 3 -1.05 16.8676 21.1527 6.45866
422 0 3 -1.05 8.41933 21.2864 2.08382
423 0 3 -1.05 14.8406 23.3131 2.22607
424 0 3 -1.05 10.6499 19.0333 6.34518
425 0 3 -1.05 16.8012 19.0777 8.49074
426 0 3 -1.05 8.44344 23.3484 0.171479
427 0 3 -1.05 12.7381 21.0634 2.21158
428 0 3 -1.05 12.8059 21.1418 6.31269
429 0 3 -1.05 14.822 -0.0849415 4.25898
430 0 3 -1.05 10.5827 17.1067 4.30254
431 0 3 -1.05 10.6473 23.4178 6.42596
432 0 3 -1.05 14.7688 18.9545 2.12705
433 0 3 -1.05 16.9042 -0.00976074 2.18604
434 0 3 -1.05 8.56462 17.0555 6.31512
435 0 3 -1.05 10.5612 21.0547 4.31794
436 0 3 -1.05 14.7966 21.3014 4.30911
437 0 3 -1.05 12.6689 23.2943 8.45542
438 0 3 -1.05 12.7615 18.9216 0.149445
439 0 3 -1.05 14.8319 19.0792 6.4781
440 0 3 -1.05 10.4278 23.3456 2.2151
441 0 3 -1.05 12.8653 16.9764 1.99627
442 0 3 -1.05 12.6344 -0.014445 6.3893
443 0 3 -1.05 8.5405 19.0868 4.31505
444 0 3 -1.05 16.853 23.3542 4.28034
445 0 3 -1.05 10.5634 21.1742 0.140347
446 0 3 -1.05 15.0502 21.2631 8.54855
447 0 3 -1.05 10.6829 19.016 2.21722
448 0 3 -1.05 14.8697 23.294 6.26479
449 1 2 1.575 18.0103 18.0023 1.11034
450 1 2 1.575 24.3134 24.302 7.51497
451 1 2 1.575 22.2001 17.9563 5.26767
452 1 2 1.575 20.108 24.3829 3.23014
453 1 2 1.575 18.0219 22.2533 5.26997
454 1 2 1.575 24.2996 20.1484 3.22118
455 1 2 1.575 22.2019 22.3086 1.08674
456 1 2 1.575 20.1789 20.1126 7.50413
457 2 4 1.575 21.187 17.0053 -0.0262461
458 2 5 1.05 19.0456 19.1316 4.23235
459 2 4 1.575 23.3089 23.3353 4.26769
460 2 5 1.05 23.2659 21.1465 6.39999
461 2 5 1.05 19.0641 21.2107 2.09379
462 2 4 1.575 16.9948 23.3079 2.09622
463 2 5 1.05 16.9585 19.046 6.274
464 2 5 1.05 17.0052 21.1967 0.0511041
465 2 5 1.05 21.168 19.1068 2.11094
466 2 5 1.05 21.1795 23.2892 6.39078
467 2 4 1.575 19.0606 16.9539 6.35803
468 2 4 1.575 23.3244 16.9748 2.15437
469 2 5 1.05 16.9839 16.9805 4.24798
470 2 4 1.575 23.2701 19.108 0.0140932
471 2 5 1.05 19.0457 23.3057 0.0777376
472 2 4 1.575 21.1944 21.1643 4.23571
473 0 3 -1.05 19.1243 -0.0848197 8.52009
474 0 3 -1.05 23.1507 16.9935 -0.101065
475 0 3 -1.05 21.1958 19.1449 4.2361
476 0 3 -1.05 21.3878 23.1978 4.24366
477 0 3 -1.05 -0.0914978 21.2432 6.47681
478 0 3 -1.05 16.992 21.265 2.09944
479 0 3 -1.05 23.3324 23.4404 2.16773
480 0 3 -1.05 19.0053 19.2036 6.33359
481 0 3 -1.05 -0.104653 19.2644 8.51194
482 0 3 -1.05 16.9555 23.2877 -0.0370279
483 0 3 -1.05 21.2481 21.1404 2.1793
484 0 3 -1.05 21.1715 21.2827 6.22942
485 0 3 -1.05 23.2534 -0.0416213 4.10868
486 0 3 -1.05 18.983 16.9746 4.21085
487 0 3 -1.05 19.045 23.3764 6.48121
488 0 3 -1.05 23.3973 18.9281 2.04059
489 0 3 -1.05 -0.168439 -0.0297835 2.03414
490 0 3 -1.05 16.9819 16.9431 6.28641
491 0 3 -1.05 19.2582 21.183 4.21581
492 0 3 -1.05 23.1557 21.2674 4.28768
493 0 3 -1.05 21.1023 23.4025 8.45349
494 0 3 -1.05 21.1859 18.9252 -0.0793626
495 0 3 -1.05 23.2859 19.1758 6.4121
496 0 3 -1.05 19.0852 23.312 2.10027
497 0 3 -1.05 21.2932 16.8907 2.06057
498 0 3 -1.05 21.1565 -0.0478606 6.37792
499 0 3 -1.05 16.9311 19.0712 4.21298
500 0 3 -1.05 -0.197831 23.2532 4.12822
501 0 3 -1.05 19.0211 21.2521 -0.0384172
502 0 3 -1.05 23.3667 21.1652 8.49997
503 0 3 -1.05 19.117 19.0278 2.10539
504 0 3 -1.05 23.2784 23.2848 6.29136
505 1 2 1.575 1.1117 1.02993 9.52853
506 1 2 1.575 7.34817 7.39123 15.9219
507 1 2 1.575 5.29498 1.09643 13.816
508 1 2 1.575 3.21565 7.44621 11.683
509 1 2 1.575 1.14973 5.36097 13.7353
510 1 2 1.575 7.44294 3.19737 11.6745
511 1 2 1.575 5.33554 5.2994 9.5487
512 1 2 1.575 3.15963 3.13719 15.8846
513 2 5 1.05 4.24576 0.00440606 8.50881
514 2 4 1.575 2.12693 2.11752 12.6906
515 2 4 1.575 6.31529 6.35969 12.6919
516 2 5 1.05 6.31312 4.2162 14.8414
517 2 5 1.05 2.06083 4.24229 10.5608
518 2 5 1.05 0.00905548 6.30487 10.5532
519 2 4 1.575 0.0252661 2.09177 14.8842
520 2 4 1.575 -0.00363485 4.20092 8.48918
521 2 5 1.05 4.26391 2.07695 10.5534
522 2 5 1.05 4.29143 6.29914 14.8172
523 2 5 1.05 2.14028 -0.0119345 14.8515
524 2 5 1.05 6.32949 0.0607249 10.6053
525 2 5 1.05 0.0150929 -0.0557537 12.6693
526 2 5 1.05 6.32494 2.13204 8.58011
527 2 5 1.05 2.1867 6.34073 8.60185
528 2 4 1.575 4.27868 4.16175 12.7027
529 0 3 -1.05 2.06373 8.37084 16.8257
530 0 3 -1.05 6.35936 0.160399 8.44121
531 0 3 -1.05 4.13828 2.16079 12.7433
532 0 3 -1.05 4.343 6.34149 12.7275
533 0 3 -1.05 8.48344 4.12546 14.8568
534 0 3 -1.05 -0.0342058 4.32985 10.5189
535 0 3 -1.05 6.49313 6.36837 10.6577
536 0 3 -1.05 1.92999 2.19526 14.7287
537 0 3 -1.05 8.45512 2.23553 16.8699
538 0 3 -1.05 0.0461617 6.46522 8.49412
539 0 3 -1.05 4.18138 4.20418 10.7075
540 0 3 -1.05 4.21488 4.2673 14.76
541 0 3 -1.05 6.35956 8.33446 12.7065
542 0 3 -1.05 2.18547 0.189137 12.7183
543 0 3 -1.05 2.07578 6.50873 14.9499
544 0 3 -1.05 6.25442 2.1751 10.5197
545 0 3 -1.05 8.47726 8.40306 10.5954
546 0 3 -1.05 -0.00928997 0.223748 14.8843
547 0 3 -1.05 2.15445 4.10984 12.624
548 0 3 -1.05 6.35467 4.40174 12.7184
549 0 3 -1.05 4.13313 6.4014 16.9252
550 0 3 -1.05 4.34419 2.20101 8.53824
551 0 3 -1.05 6.45296 2.14013 14.8092
552 0 3 -1.05 2.12679 6.37002 10.6257
553 0 3 -1.05 4.24471 0.08464 10.5404
554 0 3 -1.05 4.08954 8.46844 14.8469
555 0 3 -1.05 0.118839 2.21137 12.893
556 0 3 -1.05 8.37459 6.42792 12.6107
557 0 3 -1.05 2.05633 4.40408 8.5038
558 0 3 -1.05 6.44888 4.25159 17.0263
559 0 3 -1.05 2.07446 2.12669 10.6527
560 0 3 -1.05 6.29736 6.32226 14.6547
561 1 2 1.575 9.47662 1.14043 9.61192
562 1 2 1.575 15.8663 7.3764 15.9889
563 1 2 1.575 13.7381 1.10222 13.8459
564 1 2 1.575 11.6751 7.38619 11.6214
565 1 2 1.575 9.52191 5.32746 13.7579
566 1 2 1.575 15.8295 3.15501 11.6736
567 1 2 1.575 13.7688 5.22702 9.50688
568 1 2 1.575 11.6256 3.16493 15.9008
569 2 5 1.05 12.739 0.00286571 8.48363
570 2 5 1.05 10.5859 2.12547 12.6848
571 2 4 1.575 14.8424 6.3191 12.7059
572 2 4 1.575 14.7856 4.26106 14.8261
573 2 5 1.05 10.5994 4.24449 10.5864
574 2 4 1.575 8.49592 6.36266 10.6054
575 2 4 1.575 8.40112 2.11863 14.8753
576 2 4 1.575 8.49168 4.23568 8.53776
577 2 4 1.575 12.7686 2.13774 10.6291
578 2 4 1.575 12.7267 6.3411 14.7891
579 2 5 1.05 10.5626 0.0681371 14.8687
580 2 5 1.05 14.8294 0.0414233 10.6053
581 2 5 1.05 8.47041 0.0279946 12.7111
582 2 4 1.575 14.7909 2.09973 8.44129
583 2 5 1.05 10.6377 6.43462 8.46219
584 2 5 1.05 12.6644 4.29473 12.7127
585 0 3 -1.05 10.7669 8.42212 16.8614
586 0 3 -1.05 14.9798 0.0920541 8.49056
587 0 3 -1.05 12.6933 2.10788 12.6827
588 0 3 -1.05 12.9324 6.33981 12.6592
589 0 3 -1.05 16.8447 4.19101 14.8334
590 0 3 -1.05 8.51319 4.31044 10.5087
591 0 3 -1.05 14.942 6.47189 10.6912
592 0 3 -1.05 10.577 2.12194 14.7814
593 0 3 -1.05 16.8551 2.23051 16.908
594 0 3 -1.05 8.41682 6.20793 8.56919
595 0 3 -1.05 12.8169 4.09244 10.548
596 0 3 -1.05 12.8855 4.22417 14.7387
597 0 3 -1.05 14.8991 8.44363 12.6366
598 0 3 -1.05 10.6932 0.118293 12.7385
599 0 3 -1.05 10.5421 6.52269 14.9909
600 0 3 -1.05 14.8193 2.11406 10.5091
601 0 3 -1.05 16.8587 8.70045 10.5287
602 0 3 -1.05 8.5221 0.104395 14.8317
603 0 3 -1.05 10.6179 4.2113 12.7871
604 0 3 -1.05 14.8361 4.34313 12.8287
605 0 3 -1.05 12.5934 6.36975 17.0075
606 0 3 -1.05 12.81 2.19706 8.50307
607 0 3 -1.05 14.9707 2.24734 14.8883
608 0 3 -1.05 10.5295 6.31048 10.6165
609 0 3 -1.05 12.8032 0.111152 10.5908
610 0 3 -1.05 12.6399 8.49569 14.968
611 0 3 -1.05 8.53633 2.22236 12.7453
612 0 3 -1.05 16.8857 6.37066 12.729
613 0 3 -1.05 10.4726 4.22719 8.49092
614 0 3 -1.05 14.9273 4.13697 16.8548
615 0 3 -1.05 10.6507 2.11452 10.6425
616 0 3 -1.05 14.8719 6.15836 14.6636
617 1 2 1.575 18.0256 1.05671 9.54175
618 1 2 1.575 24.4518 7.32732 15.8516
619 1 2 1.575 22.2239 0.967455 13.7296
620 1 2 1.575 20.183 7.38134 11.6845
621 1 2 1.575 18.0008 5.25432 13.8069
622 1 2 1.575 24.4136 3.08027 11.6854
623 1 2 1.575 22.3255 5.32117 9.52997
624 1 2 1.575 20.2195 3.19913 15.8991
625 2 4 1.575 21.1978 -0.0207634 8.47172
626 2 5 1.05 19.1065 2.11002 12.7136
627 2 4 1.575 23.3616 6.38286 12.7012
628 2 4 1.575 23.3611 4.21739 14.8737
629 2 4 1.575 19.1125 4.17299 10.6388
630 2 5 1.05 16.9672 6.30001 10.6494
631 2 4 1.575 17.0181 2.14359 14.8576
632 2 4 1.575 16.893 4.19735 8.48077
633 2 5 1.05 21.2257 2.10982 10.5971
634 2 4 1.575 21.1588 6.35349 14.8911
635 2 5 1.05 19.1343 -0.0468717 14.857
636 2 4 1.575 23.3343 -0.0163267 10.6189
637 2 4 1.575 17.0024 0.0119876 12.7372
638 2 5 1.05 23.3348 2.13296 8.46098
639 2 4 1.575 19.0723 6.38755 8.48634
640 2 4 1.575 21.2152 4.19601 12.6419
641 0 3 -1.05 19.1552 8.37506 17.0297
642 0 3 -1.05 23.1666 0.0127582 8.56949
643 0 3 -1.05 21.1036 2.318 12.8495
644 0 3 -1.05 21.2553 6.3126 12.9086
645 0 3 -1.05 -0.125546 4.2183 14.7643
646 0 3 -1.05 16.9019 4.24838 10.5539
647 0 3 -1.05 23.2716 6.49662 10.7205
648 0 3 -1.05 18.9324 2.20543 14.8065
649 0 3 -1.05 -0.0624008 2.21337 16.8541
650 0 3 -1.05 17.0272 6.51757 8.49253
651 0 3 -1.05 21.109 4.38288 10.6787
652 0 3 -1.05 21.272 4.32976 14.8787
653 0 3 -1.05 23.3573 8.38728 12.642
654 0 3 -1.05 18.9108 -0.000368397 12.7
655 0 3 -1.05 19.2194 6.26991 14.9584
656 0 3 -1.05 23.2668 1.94553 10.5669
657 0 3 -1.05 -0.0481053 8.43923 10.7368
658 0 3 -1.05 16.8558 0.157331 14.769
659 0 3 -1.05 19.2942 4.32428 12.548
660 0 3 -1.05 23.2263 4.31339 12.7983
661 0 3 -1.05 21.1947 6.40236 16.8277
662 0 3 -1.05 21.2466 1.92866 8.62081
663 0 3 -1.05 23.4151 2.36663 14.8285
664 0 3 -1.05 18.9756 6.19335 10.4478
665 0 3 -1.05 21.2203 0.0877819 10.5059
666 0 3 -1.05 21.2057 8.46886 14.8249
667 0 3 -1.05 16.9538 2.06775 12.8409
668 0 3 -1.05 -0.177261 6.54576 12.7667
669 0 3 -1.05 19.0414 4.23694 8.4138
670 0 3 -1.05 23.3156 4.32184 16.7691
671 0 3 -1.05 19.0245 2.28362 10.6448
672 0 3 -1.05 23.2474 6.30641 14.8259
673 1 2 1.575 1.06251 9.48617 9.55533
674 1 2 1.575 7.43376 15.8699 15.9226
675 1 2 1.575 5.31712 9.53363 13.7156
676 1 2 1.575 3.16099 15.8776 11.7157
677 1 2 1.575 1.06259 13.8096 13.7699
678 1 2 1.575 7.40405 11.6262 11.5709
679 1 2 1.575 5.36699 13.7055 9.56872
680 1 2 1.575 3.21124 11.5812 15.9073
681 2 5 1.05 4.22068 8.42169 8.51148
682 2 4 1.575 2.1597 10.5781 12.6996
683 2 5 1.05 6.32272 14.853 12.6929
684 2 5 1.05 6.38609 12.7015 14.7841
685 2 5 1.05 2.07372 12.6932 10.6122
686 2 4 1.575 0.0651661 14.8318 10.5496
687 2 5 1.05 -0.0369437 10.6061 14.8311
688 2 4 1.575 0.00182245 12.6866 8.46968
689 2 5 1.05 4.27108 10.578 10.6113
690 2 5 1.05 4.23278 14.8367 14.7632
691 2 4 1.575 2.17905 8.48794 14.8002
692 2 5 1.05 6.31612 8.46198 10.5811
693 2 4 1.575 0.0409086 8.52148 12.729
694 2 4 1.575 6.3746 10.6223 8.49065
695 2 5 1.05 2.04488 14.8133 8.49395
696 2 4 1.575 4.2398 12.6686 12.6871
697 0 3 -1.05 2.19805 16.9587 16.9357
698 0 3 -1.05 6.23413 8.56499 8.52576
699 0 3 -1.05 4.10499 10.6781 12.7333
700 0 3 -1.05 4.24733 14.6998 12.7568
701 0 3 -1.05 8.61533 12.6504 14.951
702 0 3 -1.05 0.00101766 12.8613 10.5839
703 0 3 -1.05 6.48783 14.8591 10.572
704 0 3 -1.05 2.0036 10.4595 14.746
705 0 3 -1.05 8.37466 10.7253 17.0284
706 0 3 -1.05 0.017783 14.6705 8.54327
707 0 3 -1.05 4.31079 12.6618 10.7022
708 0 3 -1.05 4.35132 12.7265 14.823
709 0 3 -1.05 6.49178 17.0278 12.6667
710 0 3 -1.05 2.03401 8.56766 12.8218
711 0 3 -1.05 2.10349 14.9006 14.809
712 0 3 -1.05 6.28141 10.4449 10.499
713 0 3 -1.05 8.45819 16.8666 10.6813
714 0 3 -1.05 0.103831 8.50641 14.6762
715 0 3 -1.05 2.2223 12.5623 12.8215
716 0 3 -1.05 6.35405 12.7596 12.7578
717 0 3 -1.05 4.20197 14.8595 16.9237
718 0 3 -1.05 4.34278 10.6316 8.43835
719 0 3 -1.05 6.37492 10.6375 14.9691
720 0 3 -1.05 1.95853 14.7229 10.5619
721 0 3 -1.05 4.28055 8.45266 10.5235
722 0 3 -1.05 4.35737 16.974 15.0149
723 0 3 -1.05 0.0284279 10.5398 12.8
724 0 3 -1.05 8.51463 15.0135 12.576
725 0 3 -1.05 1.90097 12.6301 8.55673
726 0 3 -1.05 6.51555 12.6215 17.0854
727 0 3 -1.05 2.1155 10.5736 10.696
728 0 3 -1.05 6.41997 14.7692 14.835
729 1 2 1.575 9.52312 9.5442 9.61165
730 1 2 1.575 15.8657 15.9451 15.7984
731 1 2 1.575 13.7582 9.52255 13.7838
732 1 2 1.575 11.6621 15.9192 11.7216
733 1 2 1.575 9.51237 13.7957 13.7103
734 1 2 1.575 15.7654 11.6989 11.6365
735 1 2 1.575 13.7657 13.8046 9.47687
736 1 2 1.575 11.6379 11.6898 15.9357
737 2 5 1.05 12.6475 8.46673 8.44431
738 2 5 1.05 10.6512 10.5632 12.7145
739 2 5 1.05 14.8629 14.8229 12.6522
740 2 4 1.575 14.846 12.7473 14.8303
741 2 4 1.575 10.5795 12.7351 10.5892
742 2 4 1.575 8.39904 14.8017 10.6155
743 2 5 1.05 8.45908 10.5594 14.8268
744 2 4 1.575 8.49456 12.6999 8.47377
745 2 4 1.575 12.6348 10.5953 10.5859
746 2 4 1.575 12.7014 14.8288 14.8641
747 2 4 1.575 10.6264 8.42515 14.8179
748 2 4 1.575 14.8277 8.41325 10.6328
749 2 5 1.05 8.46826 8.47312 12.7008
750 2 4 1.575 14.8231 10.6286 8.46486
751 2 5 1.05 10.6031 14.8012 8.45961
752 2 4 1.575 12.6954 12.7044 12.6726
753 0 3 -1.05 10.6555 16.7965 16.9975
754 0 3 -1.05 14.8238 8.61888 8.64308
755 0 3 -1.05 12.7526 10.7736 12.539
756 0 3 -1.05 12.7068 14.7071 12.8389
757 0 3 -1.05 16.9601 12.7091 14.9549
758 0 3 -1.05 8.52984 12.8583 10.5632
759 0 3 -1.05 14.791 14.8503 10.6048
760 0 3 -1.05 10.6462 10.5262 14.8083
761 0 3 -1.05 16.8208 10.7108 17.027
762 0 3 -1.05 8.50728 14.7409 8.533
763 0 3 -1.05 12.7549 12.6929 10.7369
764 0 3 -1.05 12.7655 12.8162 14.7647
765 0 3 -1.05 14.7295 16.7686 12.6888
766 0 3 -1.05 10.6001 8.4229 12.8142
767 0 3 -1.05 10.7152 14.8058 14.9426
768 0 3 -1.05 14.6936 10.5198 10.4963
769 0 3 -1.05 16.7396 16.8653 10.5789
770 0 3 -1.05 8.53327 8.52591 14.8287
771 0 3 -1.05 10.7379 12.6486 12.7442
772 0 3 -1.05 14.6403 12.7839 12.7757
773 0 3 -1.05 12.549 14.8169 16.9208
774 0 3 -1.05 12.8618 10.4985 8.62023
775 0 3 -1.05 14.8294 10.5935 15.0798
776 0 3 -1.05 10.5245 14.7959 10.6167
777 0 3 -1.05 12.8898 8.55316 10.7292
778 0 3 -1.05 12.7653 16.7913 14.8532
779 0 3 -1.05 8.31622 10.5803 12.7352
780 0 3 -1.05 16.8213 14.8487 12.706
781 0 3 -1.05 10.5036 12.7332 8.51368
782 0 3 -1.05 14.93 12.6342 17.0163